 DBCSR| Multiplication driver                                               BLAS
 DBCSR| Multrec recursion limit                                              512
 DBCSR| Multiplication stack size                                           1000
 DBCSR| Maximum elements for images                                    UNLIMITED
 DBCSR| Multiplicative factor virtual images                                   1
 DBCSR| Multiplication size stacks                                             3
 DBCSR| Number of 3D layers                                               SINGLE
 DBCSR| Use MPI memory allocation                                              T
 DBCSR| Use RMA algorithm                                                      F
 DBCSR| Use Communication thread                                               T
 DBCSR| Communication thread load                                             87


  **** **** ******  **  PROGRAM STARTED AT               2020-01-15 16:09:55.495
 ***** ** ***  *** **   PROGRAM STARTED ON                         daniele-Ubu18
 **    ****   ******    PROGRAM STARTED BY                               daniele
 ***** **    ** ** **   PROGRAM PROCESS ID                                 25190
  **** **  *******  **  PROGRAM STARTED IN /home/daniele/dev_aiida/aiida_run/42/
                                           44/db1b-725a-45fb-864b-3c8fb1336084

 CP2K| version string:                                          CP2K version 5.1
 CP2K| source code revision number:                                    svn:18091
 CP2K| cp2kflags: libint fftw3 libxc parallel mpi3 scalapack libderiv_max_am1=5 
 CP2K|            libint_max_am=6
 CP2K| is freely available from                            https://www.cp2k.org/
 CP2K| Program compiled at                          Mon Jan 15 17:12:42 UTC 2018
 CP2K| Program compiled on                                       lgw01-amd64-018
 CP2K| Program compiled for                                Linux-x86_64-gfortran
 CP2K| Data directory path         /home/daniele/aiida-lsmo-codes/data/cp2k/data
 CP2K| Input file name                                                 aiida.inp

 GLOBAL| Force Environment number                                              1
 GLOBAL| Basis set file name                                        BASIS_MOLOPT
 GLOBAL| Potential file name                                      GTH_POTENTIALS
 GLOBAL| MM Potential file name                                     MM_POTENTIAL
 GLOBAL| Coordinate file name                                   aiida.coords.xyz
 GLOBAL| Method name                                                        CP2K
 GLOBAL| Project name                                                      aiida
 GLOBAL| Preferred FFT library                                             FFTW3
 GLOBAL| Preferred diagonalization lib.                                       SL
 GLOBAL| Run type                                                           BSSE
 GLOBAL| All-to-all communication in single precision                          F
 GLOBAL| FFTs using library dependent lengths                                  F
 GLOBAL| Global print level                                               MEDIUM
 GLOBAL| Total number of message passing processes                             4
 GLOBAL| Number of threads for this process                                    1
 GLOBAL| This output is from process                                           0
 GLOBAL| CPU model name :  Intel(R) Core(TM) i7-4790 CPU @ 3.60GHz

 MEMORY| system memory details [Kb]
 MEMORY|                        rank 0           min           max       average
 MEMORY| MemTotal             32843632      32843632      32843632      32843632
 MEMORY| MemFree               1430164       1430164       1430164       1430164
 MEMORY| Buffers               1936816       1936816       1936816       1936816
 MEMORY| Cached               16259028      16259028      16259028      16259028
 MEMORY| Slab                  5658812       5658812       5658812       5658812
 MEMORY| SReclaimable          5367044       5367044       5367044       5367044
 MEMORY| MemLikelyFree        24993052      24993052      24993052      24993052


 *** Fundamental physical constants (SI units) ***

 *** Literature: B. J. Mohr and B. N. Taylor,
 ***             CODATA recommended values of the fundamental physical
 ***             constants: 2006, Web Version 5.1
 ***             http://physics.nist.gov/constants

 Speed of light in vacuum [m/s]                             2.99792458000000E+08
 Magnetic constant or permeability of vacuum [N/A**2]       1.25663706143592E-06
 Electric constant or permittivity of vacuum [F/m]          8.85418781762039E-12
 Planck constant (h) [J*s]                                  6.62606896000000E-34
 Planck constant (h-bar) [J*s]                              1.05457162825177E-34
 Elementary charge [C]                                      1.60217648700000E-19
 Electron mass [kg]                                         9.10938215000000E-31
 Electron g factor [ ]                                     -2.00231930436220E+00
 Proton mass [kg]                                           1.67262163700000E-27
 Fine-structure constant                                    7.29735253760000E-03
 Rydberg constant [1/m]                                     1.09737315685270E+07
 Avogadro constant [1/mol]                                  6.02214179000000E+23
 Boltzmann constant [J/K]                                   1.38065040000000E-23
 Atomic mass unit [kg]                                      1.66053878200000E-27
 Bohr radius [m]                                            5.29177208590000E-11

 *** Conversion factors ***

 [u] -> [a.u.]                                              1.82288848426455E+03
 [Angstrom] -> [Bohr] = [a.u.]                              1.88972613288564E+00
 [a.u.] = [Bohr] -> [Angstrom]                              5.29177208590000E-01
 [a.u.] -> [s]                                              2.41888432650478E-17
 [a.u.] -> [fs]                                             2.41888432650478E-02
 [a.u.] -> [J]                                              4.35974393937059E-18
 [a.u.] -> [N]                                              8.23872205491840E-08
 [a.u.] -> [K]                                              3.15774647902944E+05
 [a.u.] -> [kJ/mol]                                         2.62549961709828E+03
 [a.u.] -> [kcal/mol]                                       6.27509468713739E+02
 [a.u.] -> [Pa]                                             2.94210107994716E+13
 [a.u.] -> [bar]                                            2.94210107994716E+08
 [a.u.] -> [atm]                                            2.90362800883016E+08
 [a.u.] -> [eV]                                             2.72113838565563E+01
 [a.u.] -> [Hz]                                             6.57968392072181E+15
 [a.u.] -> [1/cm] (wave numbers)                            2.19474631370540E+05
 [a.u./Bohr**2] -> [1/cm]                                   5.14048714338585E+03
 

 CELL_TOP| Volume [angstrom^3]:                                         1375.527
 CELL_TOP| Vector a [angstrom     6.917     0.000    -1.071    |a| =       6.999
 CELL_TOP| Vector b [angstrom    -3.459    13.046    -7.086    |b| =      15.244
 CELL_TOP| Vector c [angstrom     0.000     0.000    15.244    |c| =      15.244
 CELL_TOP| Angle (b,c), alpha [degree]:                                  117.699
 CELL_TOP| Angle (a,c), beta  [degree]:                                   98.805
 CELL_TOP| Angle (a,b), gamma [degree]:                                   98.807
 CELL_TOP| Numerically orthorhombic:                                          NO

 GENERATE|  Preliminary Number of Bonds generated:                             0
 GENERATE|  Achieved consistency in connectivity generation.

 CELL| Volume [angstrom^3]:                                             1375.527
 CELL| Vector a [angstrom]:       6.917     0.000    -1.071    |a| =       6.999
 CELL| Vector b [angstrom]:      -3.459    13.046    -7.086    |b| =      15.244
 CELL| Vector c [angstrom]:       0.000     0.000    15.244    |c| =      15.244
 CELL| Angle (b,c), alpha [degree]:                                      117.699
 CELL| Angle (a,c), beta  [degree]:                                       98.805
 CELL| Angle (a,b), gamma [degree]:                                       98.807
 CELL| Numerically orthorhombic:                                              NO

 CELL_REF| Volume [angstrom^3]:                                         1375.527
 CELL_REF| Vector a [angstrom     6.917     0.000    -1.071    |a| =       6.999
 CELL_REF| Vector b [angstrom    -3.459    13.046    -7.086    |b| =      15.244
 CELL_REF| Vector c [angstrom     0.000     0.000    15.244    |c| =      15.244
 CELL_REF| Angle (b,c), alpha [degree]:                                  117.699
 CELL_REF| Angle (a,c), beta  [degree]:                                   98.805
 CELL_REF| Angle (a,b), gamma [degree]:                                   98.807
 CELL_REF| Numerically orthorhombic:                                          NO

 *******************************************************************************
 *******************************************************************************
 **                                                                           **
 **     #####                         ##              ##                      **
 **    ##   ##            ##          ##              ##                      **
 **   ##     ##                       ##            ######                    **
 **   ##     ##  ##   ##  ##   #####  ##  ##   ####   ##    #####    #####    **
 **   ##     ##  ##   ##  ##  ##      ## ##   ##      ##   ##   ##  ##   ##   **
 **   ##  ## ##  ##   ##  ##  ##      ####     ###    ##   ######   ######    **
 **    ##  ###   ##   ##  ##  ##      ## ##      ##   ##   ##       ##        **
 **     #######   #####   ##   #####  ##  ##  ####    ##    #####   ##        **
 **           ##                                                    ##        **
 **                                                                           **
 **                                                ... make the atoms dance   **
 **                                                                           **
 **            Copyright (C) by CP2K developers group (2000 - 2017)           **
 **                                                                           **
 *******************************************************************************

 DFT| Spin restricted Kohn-Sham (RKS) calculation                            RKS
 DFT| Multiplicity                                                             1
 DFT| Number of spin states                                                    1
 DFT| Charge                                                                   0
 DFT| Self-interaction correction (SIC)                                       NO
 DFT| Cutoffs: density                                              1.000000E-10
 DFT|          gradient                                             1.000000E-10
 DFT|          tau                                                  1.000000E-10
 DFT|          cutoff_smoothing_range                               0.000000E+00
 DFT| XC density smoothing                                                  NONE
 DFT| XC derivatives                                                          PW
 FUNCTIONAL| ROUTINE=NEW
 FUNCTIONAL| PBE:
 FUNCTIONAL| J.P.Perdew, K.Burke, M.Ernzerhof, Phys. Rev. Letter, vol. 77, n 18,
 FUNCTIONAL|  pp. 3865-3868, (1996){spin unpolarized}                           
 vdW POTENTIAL|                                                   Pair Potential
 vdW POTENTIAL|          DFT-D3 (Version 3.1)
 vdW POTENTIAL|          Potential Form: S. Grimme et al, JCP 132: 154104 (2010)
 vdW POTENTIAL|          BJ Damping: S. Grimme et al, JCC 32: 1456 (2011)
 vdW POTENTIAL|          Cutoff Radius [Bohr]:                             20.00
 vdW POTENTIAL|          s6 Scaling Factor:                               1.0000
 vdW POTENTIAL|          a1 Damping Factor:                               0.4289
 vdW POTENTIAL|          s8 Scaling Factor:                               0.7875
 vdW POTENTIAL|          a2 Damping Factor:                               4.4407
 vdW POTENTIAL|          Cutoff for CN calculation:                   0.1000E-05

 QS| Method:                                                                 GPW
 QS| Density plane wave grid type                        NON-SPHERICAL FULLSPACE
 QS| Number of grid levels:                                                    4
 QS| Density cutoff [a.u.]:                                                150.0
 QS| Multi grid cutoff [a.u.]: 1) grid level                               150.0
 QS|                           2) grid level                                50.0
 QS|                           3) grid level                                16.7
 QS|                           4) grid level                                 5.6
 QS| Grid level progression factor:                                          3.0
 QS| Relative density cutoff [a.u.]:                                        15.0
 QS| Consistent realspace mapping and integration 
 QS| Interaction thresholds: eps_pgf_orb:                                1.0E-05
 QS|                         eps_filter_matrix:                          0.0E+00
 QS|                         eps_core_charge:                            1.0E-12
 QS|                         eps_rho_gspace:                             1.0E-10
 QS|                         eps_rho_rspace:                             1.0E-10
 QS|                         eps_gvg_rspace:                             1.0E-05
 QS|                         eps_ppl:                                    1.0E-02
 QS|                         eps_ppnl:                                   1.0E-07


 ATOMIC KIND INFORMATION

  1. Atomic kind: Zn                                    Number of atoms:       6

     Orbital Basis Set                                    DZVP-MOLOPT-SR-GTH-q12

       Number of orbital shell sets:                                           1
       Number of orbital shells:                                               7
       Number of primitive Cartesian functions:                                6
       Number of Cartesian basis functions:                                   30
       Number of spherical basis functions:                                   25
       Norm type:                                                              2

       Normalised Cartesian orbitals:

                        Set   Shell   Orbital            Exponent    Coefficient

                          1       1    2s                6.400813       0.070678
                                                         3.167793      -0.182901
                                                         1.341704       0.275787
                                                         0.545418       0.070077
                                                         0.222222      -0.163015
                                                         0.079830      -0.058340

                          1       2    3s                6.400813       0.159300
                                                         3.167793      -0.240359
                                                         1.341704      -0.028572
                                                         0.545418      -0.590243
                                                         0.222222       0.705234
                                                         0.079830      -0.232595

                          1       3    3px               6.400813       0.044197
                                                         3.167793      -0.065115
                                                         1.341704       0.233173
                                                         0.545418      -0.041743
                                                         0.222222      -0.119659
                                                         0.079830      -0.031199
                          1       3    3py               6.400813       0.044197
                                                         3.167793      -0.065115
                                                         1.341704       0.233173
                                                         0.545418      -0.041743
                                                         0.222222      -0.119659
                                                         0.079830      -0.031199
                          1       3    3pz               6.400813       0.044197
                                                         3.167793      -0.065115
                                                         1.341704       0.233173
                                                         0.545418      -0.041743
                                                         0.222222      -0.119659
                                                         0.079830      -0.031199

                          1       4    4px               6.400813       0.240176
                                                         3.167793      -0.408028
                                                         1.341704      -0.147214
                                                         0.545418      -0.102288
                                                         0.222222       0.357755
                                                         0.079830      -0.080257
                          1       4    4py               6.400813       0.240176
                                                         3.167793      -0.408028
                                                         1.341704      -0.147214
                                                         0.545418      -0.102288
                                                         0.222222       0.357755
                                                         0.079830      -0.080257
                          1       4    4pz               6.400813       0.240176
                                                         3.167793      -0.408028
                                                         1.341704      -0.147214
                                                         0.545418      -0.102288
                                                         0.222222       0.357755
                                                         0.079830      -0.080257

                          1       5    4dx2              6.400813      12.052935
                                                         3.167793       4.421864
                                                         1.341704       0.893324
                                                         0.545418       0.127232
                                                         0.222222       0.011466
                                                         0.079830       0.000178
                          1       5    4dxy              6.400813      20.876296
                                                         3.167793       7.658893
                                                         1.341704       1.547283
                                                         0.545418       0.220373
                                                         0.222222       0.019859
                                                         0.079830       0.000308
                          1       5    4dxz              6.400813      20.876296
                                                         3.167793       7.658893
                                                         1.341704       1.547283
                                                         0.545418       0.220373
                                                         0.222222       0.019859
                                                         0.079830       0.000308
                          1       5    4dy2              6.400813      12.052935
                                                         3.167793       4.421864
                                                         1.341704       0.893324
                                                         0.545418       0.127232
                                                         0.222222       0.011466
                                                         0.079830       0.000178
                          1       5    4dyz              6.400813      20.876296
                                                         3.167793       7.658893
                                                         1.341704       1.547283
                                                         0.545418       0.220373
                                                         0.222222       0.019859
                                                         0.079830       0.000308
                          1       5    4dz2              6.400813      12.052935
                                                         3.167793       4.421864
                                                         1.341704       0.893324
                                                         0.545418       0.127232
                                                         0.222222       0.011466
                                                         0.079830       0.000178

                          1       6    5dx2              6.400813      -3.077244
                                                         3.167793      -1.397438
                                                         1.341704      -0.501565
                                                         0.545418       0.120936
                                                         0.222222       0.032489
                                                         0.079830       0.013923
                          1       6    5dxy              6.400813      -5.329943
                                                         3.167793      -2.420434
                                                         1.341704      -0.868735
                                                         0.545418       0.209468
                                                         0.222222       0.056272
                                                         0.079830       0.024116
                          1       6    5dxz              6.400813      -5.329943
                                                         3.167793      -2.420434
                                                         1.341704      -0.868735
                                                         0.545418       0.209468
                                                         0.222222       0.056272
                                                         0.079830       0.024116
                          1       6    5dy2              6.400813      -3.077244
                                                         3.167793      -1.397438
                                                         1.341704      -0.501565
                                                         0.545418       0.120936
                                                         0.222222       0.032489
                                                         0.079830       0.013923
                          1       6    5dyz              6.400813      -5.329943
                                                         3.167793      -2.420434
                                                         1.341704      -0.868735
                                                         0.545418       0.209468
                                                         0.222222       0.056272
                                                         0.079830       0.024116
                          1       6    5dz2              6.400813      -3.077244
                                                         3.167793      -1.397438
                                                         1.341704      -0.501565
                                                         0.545418       0.120936
                                                         0.222222       0.032489
                                                         0.079830       0.013923

                          1       7    5fx3              6.400813      -0.041001
                                                         3.167793       0.016340
                                                         1.341704       0.068339
                                                         0.545418       0.147998
                                                         0.222222       0.008656
                                                         0.079830       0.003475
                          1       7    5fx2y             6.400813      -0.091680
                                                         3.167793       0.036538
                                                         1.341704       0.152810
                                                         0.545418       0.330933
                                                         0.222222       0.019354
                                                         0.079830       0.007771
                          1       7    5fx2z             6.400813      -0.091680
                                                         3.167793       0.036538
                                                         1.341704       0.152810
                                                         0.545418       0.330933
                                                         0.222222       0.019354
                                                         0.079830       0.007771
                          1       7    5fxy2             6.400813      -0.091680
                                                         3.167793       0.036538
                                                         1.341704       0.152810
                                                         0.545418       0.330933
                                                         0.222222       0.019354
                                                         0.079830       0.007771
                          1       7    5fxyz             6.400813      -0.158795
                                                         3.167793       0.063286
                                                         1.341704       0.264674
                                                         0.545418       0.573193
                                                         0.222222       0.033523
                                                         0.079830       0.013460
                          1       7    5fxz2             6.400813      -0.091680
                                                         3.167793       0.036538
                                                         1.341704       0.152810
                                                         0.545418       0.330933
                                                         0.222222       0.019354
                                                         0.079830       0.007771
                          1       7    5fy3              6.400813      -0.041001
                                                         3.167793       0.016340
                                                         1.341704       0.068339
                                                         0.545418       0.147998
                                                         0.222222       0.008656
                                                         0.079830       0.003475
                          1       7    5fy2z             6.400813      -0.091680
                                                         3.167793       0.036538
                                                         1.341704       0.152810
                                                         0.545418       0.330933
                                                         0.222222       0.019354
                                                         0.079830       0.007771
                          1       7    5fyz2             6.400813      -0.091680
                                                         3.167793       0.036538
                                                         1.341704       0.152810
                                                         0.545418       0.330933
                                                         0.222222       0.019354
                                                         0.079830       0.007771
                          1       7    5fz3              6.400813      -0.041001
                                                         3.167793       0.016340
                                                         1.341704       0.068339
                                                         0.545418       0.147998
                                                         0.222222       0.008656
                                                         0.079830       0.003475

     GTH Potential information for                                   GTH-PBE-q12

       Description:                       Goedecker-Teter-Hutter pseudopotential
                                           Goedecker et al., PRB 54, 1703 (1996)
                                          Hartwigsen et al., PRB 58, 3641 (1998)
                                                      Krack, TCA 114, 145 (2005)

       Gaussian exponent of the core charge distribution:               1.922338
       Electronic configuration (s p d ...):                           2   0  10

       Parameters of the local part of the GTH pseudopotential:

                          rloc        C1          C2          C3          C4
                        0.510000

       Parameters of the non-local part of the GTH pseudopotential:

                   l      r(l)      h(i,j,l)

                   0    0.400316   11.530041   -8.791898    3.145086
                                   -8.791898   16.465775   -8.120578
                                    3.145086   -8.120578    6.445509
                   1    0.543182    2.597195   -0.594263
                                   -0.594263    0.703141
                   2    0.250959  -14.466958

  2. Atomic kind: H                                     Number of atoms:       6

     Orbital Basis Set                                     DZVP-MOLOPT-SR-GTH-q1

       Number of orbital shell sets:                                           1
       Number of orbital shells:                                               3
       Number of primitive Cartesian functions:                                5
       Number of Cartesian basis functions:                                    5
       Number of spherical basis functions:                                    5
       Norm type:                                                              2

       Normalised Cartesian orbitals:

                        Set   Shell   Orbital            Exponent    Coefficient

                          1       1    2s               10.068468      -0.133023
                                                         2.680223      -0.177618
                                                         0.791502      -0.258419
                                                         0.239116      -0.107525
                                                         0.082193      -0.014019

                          1       2    3s               10.068468       0.344673
                                                         2.680223       1.819821
                                                         0.791502      -0.999069
                                                         0.239116       0.017430
                                                         0.082193       0.082660

                          1       3    3px              10.068468       0.155326
                                                         2.680223       0.367157
                                                         0.791502       0.311480
                                                         0.239116       0.080105
                                                         0.082193       0.033440
                          1       3    3py              10.068468       0.155326
                                                         2.680223       0.367157
                                                         0.791502       0.311480
                                                         0.239116       0.080105
                                                         0.082193       0.033440
                          1       3    3pz              10.068468       0.155326
                                                         2.680223       0.367157
                                                         0.791502       0.311480
                                                         0.239116       0.080105
                                                         0.082193       0.033440

     GTH Potential information for                                    GTH-PBE-q1

       Description:                       Goedecker-Teter-Hutter pseudopotential
                                           Goedecker et al., PRB 54, 1703 (1996)
                                          Hartwigsen et al., PRB 58, 3641 (1998)
                                                      Krack, TCA 114, 145 (2005)

       Gaussian exponent of the core charge distribution:              12.500000
       Electronic configuration (s p d ...):                                   1

       Parameters of the local part of the GTH pseudopotential:

                          rloc        C1          C2          C3          C4
                        0.200000   -4.178900    0.724463

  3. Atomic kind: C                                     Number of atoms:      25

     Orbital Basis Set                                     DZVP-MOLOPT-SR-GTH-q4

       Number of orbital shell sets:                                           1
       Number of orbital shells:                                               5
       Number of primitive Cartesian functions:                                5
       Number of Cartesian basis functions:                                   14
       Number of spherical basis functions:                                   13
       Norm type:                                                              2

       Normalised Cartesian orbitals:

                        Set   Shell   Orbital            Exponent    Coefficient

                          1       1    2s                5.605331       0.322515
                                                         2.113016       0.213043
                                                         0.769911      -0.209686
                                                         0.348157      -0.219794
                                                         0.128212      -0.022789

                          1       2    3s                5.605331       0.552234
                                                         2.113016       0.082072
                                                         0.769911       0.007843
                                                         0.348157       0.136893
                                                         0.128212       0.074283

                          1       3    3px               5.605331      -0.703879
                                                         2.113016      -0.642521
                                                         0.769911      -0.374851
                                                         0.348157      -0.139743
                                                         0.128212      -0.027849
                          1       3    3py               5.605331      -0.703879
                                                         2.113016      -0.642521
                                                         0.769911      -0.374851
                                                         0.348157      -0.139743
                                                         0.128212      -0.027849
                          1       3    3pz               5.605331      -0.703879
                                                         2.113016      -0.642521
                                                         0.769911      -0.374851
                                                         0.348157      -0.139743
                                                         0.128212      -0.027849

                          1       4    4px               5.605331      -0.480376
                                                         2.113016      -0.552894
                                                         0.769911      -0.316145
                                                         0.348157       0.210505
                                                         0.128212       0.076095
                          1       4    4py               5.605331      -0.480376
                                                         2.113016      -0.552894
                                                         0.769911      -0.316145
                                                         0.348157       0.210505
                                                         0.128212       0.076095
                          1       4    4pz               5.605331      -0.480376
                                                         2.113016      -0.552894
                                                         0.769911      -0.316145
                                                         0.348157       0.210505
                                                         0.128212       0.076095

                          1       5    4dx2              5.605331       0.640026
                                                         2.113016       0.274300
                                                         0.769911       0.446711
                                                         0.348157       0.028674
                                                         0.128212       0.029790
                          1       5    4dxy              5.605331       1.108557
                                                         2.113016       0.475102
                                                         0.769911       0.773726
                                                         0.348157       0.049666
                                                         0.128212       0.051599
                          1       5    4dxz              5.605331       1.108557
                                                         2.113016       0.475102
                                                         0.769911       0.773726
                                                         0.348157       0.049666
                                                         0.128212       0.051599
                          1       5    4dy2              5.605331       0.640026
                                                         2.113016       0.274300
                                                         0.769911       0.446711
                                                         0.348157       0.028674
                                                         0.128212       0.029790
                          1       5    4dyz              5.605331       1.108557
                                                         2.113016       0.475102
                                                         0.769911       0.773726
                                                         0.348157       0.049666
                                                         0.128212       0.051599
                          1       5    4dz2              5.605331       0.640026
                                                         2.113016       0.274300
                                                         0.769911       0.446711
                                                         0.348157       0.028674
                                                         0.128212       0.029790

     GTH Potential information for                                    GTH-PBE-q4

       Description:                       Goedecker-Teter-Hutter pseudopotential
                                           Goedecker et al., PRB 54, 1703 (1996)
                                          Hartwigsen et al., PRB 58, 3641 (1998)
                                                      Krack, TCA 114, 145 (2005)

       Gaussian exponent of the core charge distribution:               4.364419
       Electronic configuration (s p d ...):                               2   2

       Parameters of the local part of the GTH pseudopotential:

                          rloc        C1          C2          C3          C4
                        0.338471   -8.803674    1.339211

       Parameters of the non-local part of the GTH pseudopotential:

                   l      r(l)      h(i,j,l)

                   0    0.302576    9.622487
                   1    0.291507

  4. Atomic kind: O                                     Number of atoms:      20

     Orbital Basis Set                                     DZVP-MOLOPT-SR-GTH-q6

       Number of orbital shell sets:                                           1
       Number of orbital shells:                                               5
       Number of primitive Cartesian functions:                                5
       Number of Cartesian basis functions:                                   14
       Number of spherical basis functions:                                   13
       Norm type:                                                              2

       Normalised Cartesian orbitals:

                        Set   Shell   Orbital            Exponent    Coefficient

                          1       1    2s               10.389228       0.396646
                                                         3.849621       0.208811
                                                         1.388401      -0.301641
                                                         0.496955      -0.274061
                                                         0.162492      -0.033677

                          1       2    3s               10.389228       0.303673
                                                         3.849621       0.240943
                                                         1.388401      -0.313066
                                                         0.496955      -0.043055
                                                         0.162492       0.213991

                          1       3    3px              10.389228      -1.530415
                                                         3.849621      -1.371928
                                                         1.388401      -0.761951
                                                         0.496955      -0.253695
                                                         0.162492      -0.035541
                          1       3    3py              10.389228      -1.530415
                                                         3.849621      -1.371928
                                                         1.388401      -0.761951
                                                         0.496955      -0.253695
                                                         0.162492      -0.035541
                          1       3    3pz              10.389228      -1.530415
                                                         3.849621      -1.371928
                                                         1.388401      -0.761951
                                                         0.496955      -0.253695
                                                         0.162492      -0.035541

                          1       4    4px              10.389228      -0.565392
                                                         3.849621      -0.038231
                                                         1.388401      -0.382373
                                                         0.496955       0.179070
                                                         0.162492       0.122714
                          1       4    4py              10.389228      -0.565392
                                                         3.849621      -0.038231
                                                         1.388401      -0.382373
                                                         0.496955       0.179070
                                                         0.162492       0.122714
                          1       4    4pz              10.389228      -0.565392
                                                         3.849621      -0.038231
                                                         1.388401      -0.382373
                                                         0.496955       0.179070
                                                         0.162492       0.122714

                          1       5    4dx2             10.389228       1.867377
                                                         3.849621       0.670994
                                                         1.388401       1.353441
                                                         0.496955       0.273538
                                                         0.162492       0.006620
                          1       5    4dxy             10.389228       3.234392
                                                         3.849621       1.162195
                                                         1.388401       2.344229
                                                         0.496955       0.473781
                                                         0.162492       0.011466
                          1       5    4dxz             10.389228       3.234392
                                                         3.849621       1.162195
                                                         1.388401       2.344229
                                                         0.496955       0.473781
                                                         0.162492       0.011466
                          1       5    4dy2             10.389228       1.867377
                                                         3.849621       0.670994
                                                         1.388401       1.353441
                                                         0.496955       0.273538
                                                         0.162492       0.006620
                          1       5    4dyz             10.389228       3.234392
                                                         3.849621       1.162195
                                                         1.388401       2.344229
                                                         0.496955       0.473781
                                                         0.162492       0.011466
                          1       5    4dz2             10.389228       1.867377
                                                         3.849621       0.670994
                                                         1.388401       1.353441
                                                         0.496955       0.273538
                                                         0.162492       0.006620

     GTH Potential information for                                    GTH-PBE-q6

       Description:                       Goedecker-Teter-Hutter pseudopotential
                                           Goedecker et al., PRB 54, 1703 (1996)
                                          Hartwigsen et al., PRB 58, 3641 (1998)
                                                      Krack, TCA 114, 145 (2005)

       Gaussian exponent of the core charge distribution:               8.360253
       Electronic configuration (s p d ...):                               2   4

       Parameters of the local part of the GTH pseudopotential:

                          rloc        C1          C2          C3          C4
                        0.244554  -16.667215    2.487311

       Parameters of the non-local part of the GTH pseudopotential:

                   l      r(l)      h(i,j,l)

                   0    0.220956   18.337458
                   1    0.211332


 MOLECULE KIND INFORMATION


 All atoms are their own molecule, skipping detailed information


 TOTAL NUMBERS AND MAXIMUM NUMBERS

  Total number of            - Atomic kinds:                                   4
                             - Atoms:                                         57
                             - Shell sets:                                    57
                             - Shells:                                       285
                             - Primitive Cartesian functions:                291
                             - Cartesian basis functions:                    840
                             - Spherical basis functions:                    765

  Maximum angular momentum of- Orbital basis functions:                        3
                             - Local part of the GTH pseudopotential:          2
                             - Non-local part of the GTH pseudopotential:      4


 MODULE QUICKSTEP:  ATOMIC COORDINATES IN angstrom

  Atom  Kind  Element       X           Y           Z          Z(eff)       Mass

       1     1 Zn  30   -0.383625    4.293611    6.600223     12.00      65.3800
       2     1 Zn  30    2.159815    5.301947    7.779863     12.00      65.3800
       3     1 Zn  30    4.480115    3.451223    7.517364     12.00      65.3800
       4     1 Zn  30    3.841016    8.753170    0.486751     12.00      65.3800
       5     1 Zn  30    1.297611    7.744704   -0.692817     12.00      65.3800
       6     1 Zn  30   -1.022759    9.595428   -0.430460     12.00      65.3800
       7     2 H    1    4.482787    0.326675    6.269586      1.00       1.0079
       8     2 H    1   -0.512588    6.923320    4.505711      1.00       1.0079
       9     2 H    1    2.859209    5.797047   11.033385      1.00       1.0079
      10     2 H    1   -1.025431   12.719976    0.817165      1.00       1.0079
      11     2 H    1    3.969979    6.123462    2.581264      1.00       1.0079
      12     2 H    1    0.598147    7.249603   -3.946328      1.00       1.0079
      13     3 C    6    1.847192    2.234671    7.703263      4.00      12.0107
      14     3 C    6    0.863924    1.115183    7.649961      4.00      12.0107
      15     3 C    6    6.377042    1.321703    6.419893      4.00      12.0107
      16     3 C    6    5.556141    0.189038    6.393652      4.00      12.0107
      17     3 C    6    3.788779    5.091774    4.998794      4.00      12.0107
      18     3 C    6    2.703758    5.827445    4.288289      4.00      12.0107
      19     3 C    6    1.413046    6.046098    4.857577      4.00      12.0107
      20     3 C    6    0.476664    6.743674    4.086548      4.00      12.0107
      21     3 C    6   -0.261767    5.720467    9.332098      4.00      12.0107
      22     3 C    6   -1.050040    6.104414   10.537978      4.00      12.0107
      23     3 C    6    4.520985    5.679110    9.682078      4.00      12.0107
      24     3 C    6    3.884975    6.114329   10.849971      4.00      12.0107
      25     3 C    6    1.610199   10.812110   -0.616593      4.00      12.0107
      26     3 C    6    2.593398   11.931598   -0.563280      4.00      12.0107
      27     3 C    6   -2.919721   11.725078    0.666788      4.00      12.0107
      28     3 C    6   -2.098784   12.857612    0.693100      4.00      12.0107
      29     3 C    6   -0.331423    7.955138    2.088110      4.00      12.0107
      30     3 C    6    0.753633    7.219336    2.798686      4.00      12.0107
      31     3 C    6    2.044379    7.000814    2.229468      4.00      12.0107
      32     3 C    6    2.980692    6.303237    3.000509      4.00      12.0107
      33     3 C    6    3.719192    7.326184   -2.244900      4.00      12.0107
      34     3 C    6    4.507397    6.942237   -3.450922      4.00      12.0107
      35     3 C    6   -1.063664    7.367410   -2.595245      4.00      12.0107
      36     3 C    6   -0.427584    6.932191   -3.762996      4.00      12.0107
      37     4 O    8    1.377982    3.429566    7.648309      6.00      15.9994
      38     4 O    8    3.094194    1.983664    7.794712      6.00      15.9994
      39     4 O    8    5.787621    2.541908    6.286912      6.00      15.9994
      40     4 O    8    3.507212    4.603457    6.153450      6.00      15.9994
      41     4 O    8    4.938109    4.973837    4.458421      6.00      15.9994
      42     4 O    8    1.036370    5.627970    6.097393      6.00      15.9994
      43     4 O    8   -0.860163    5.013497    8.441294      6.00      15.9994
      44     4 O    8    0.954027    6.089542    9.221463      6.00      15.9994
      45     4 O    8    3.820924    4.876904    8.833239      6.00      15.9994
      46     4 O    8    2.079374    9.617084   -0.561405      6.00      15.9994
      47     4 O    8    0.363162   11.062987   -0.707808      6.00      15.9994
      48     4 O    8   -2.330264   10.504743    0.799992      6.00      15.9994
      49     4 O    8   -0.049786    8.443194    0.933596      6.00      15.9994
      50     4 O    8   -1.480753    8.073075    2.628483      6.00      15.9994
      51     4 O    8    2.420986    7.418942    0.989510      6.00      15.9994
      52     4 O    8    4.317519    8.032893   -1.354390      6.00      15.9994
      53     4 O    8    2.503330    6.957109   -2.134407      6.00      15.9994
      54     4 O    8   -0.363568    8.169486   -1.746335      6.00      15.9994
      55     3 C    6    5.922650    0.971024    9.644414      4.00      12.0107
      56     4 O    8    5.627701    2.095563    9.433385      6.00      15.9994
      57     4 O    8    2.756503   12.905778    2.804537      6.00      15.9994




 SCF PARAMETERS         Density guess:                                    ATOMIC
                        --------------------------------------------------------
                        max_scf:                                              50
                        max_scf_history:                                       0
                        max_diis:                                              4
                        --------------------------------------------------------
                        eps_scf:                                        1.00E-04
                        eps_scf_history:                                0.00E+00
                        eps_diis:                                       1.00E-01
                        eps_eigval:                                     1.00E-05
                        --------------------------------------------------------
                        level_shift [a.u.]:                                 0.00
                        --------------------------------------------------------
                        Outer loop SCF in use 
                        No variables optimised in outer loop
                        eps_scf                                         1.00E-04
                        max_scf                                                5
                        No outer loop optimization
                        step_size                                       5.00E-01

 PW_GRID| Information for grid number                                          1
 PW_GRID| Grid distributed over                                     4 processors
 PW_GRID| Real space group dimensions                                     4    1
 PW_GRID| the grid is blocked:                                                NO
 PW_GRID| Cutoff [a.u.]                                                    150.0
 PW_GRID| spherical cutoff:                                                   NO
 PW_GRID|   Bounds   1            -37      37                Points:          75
 PW_GRID|   Bounds   2            -80      79                Points:         160
 PW_GRID|   Bounds   3            -80      79                Points:         160
 PW_GRID| Volume element (a.u.^3)  0.4835E-02     Volume (a.u.^3)      9282.5169
 PW_GRID| Grid span                                                    FULLSPACE
 PW_GRID|   Distribution                         Average         Max         Min
 PW_GRID|   G-Vectors                           480000.0      480000      480000
 PW_GRID|   G-Rays                                6400.0        6400        6400
 PW_GRID|   Real Space Points                   480000.0      486400      460800

 PW_GRID| Information for grid number                                          2
 PW_GRID| Grid distributed over                                     4 processors
 PW_GRID| Real space group dimensions                                     4    1
 PW_GRID| the grid is blocked:                                                NO
 PW_GRID| Cutoff [a.u.]                                                     50.0
 PW_GRID| spherical cutoff:                                                   NO
 PW_GRID|   Bounds   1            -22      22                Points:          45
 PW_GRID|   Bounds   2            -48      47                Points:          96
 PW_GRID|   Bounds   3            -48      47                Points:          96
 PW_GRID| Volume element (a.u.^3)  0.2238E-01     Volume (a.u.^3)      9282.5169
 PW_GRID| Grid span                                                    FULLSPACE
 PW_GRID|   Distribution                         Average         Max         Min
 PW_GRID|   G-Vectors                           103680.0      103725      103635
 PW_GRID|   G-Rays                                2304.0        2305        2303
 PW_GRID|   Real Space Points                   103680.0      110592      101376

 PW_GRID| Information for grid number                                          3
 PW_GRID| Grid distributed over                                     4 processors
 PW_GRID| Real space group dimensions                                     4    1
 PW_GRID| the grid is blocked:                                                NO
 PW_GRID| Cutoff [a.u.]                                                     16.7
 PW_GRID| spherical cutoff:                                                   NO
 PW_GRID|   Bounds   1            -12      12                Points:          25
 PW_GRID|   Bounds   2            -27      26                Points:          54
 PW_GRID|   Bounds   3            -27      26                Points:          54
 PW_GRID| Volume element (a.u.^3)  0.1273         Volume (a.u.^3)      9282.5169
 PW_GRID| Grid span                                                    FULLSPACE
 PW_GRID|   Distribution                         Average         Max         Min
 PW_GRID|   G-Vectors                            18225.0       18225       18225
 PW_GRID|   G-Rays                                 729.0         729         729
 PW_GRID|   Real Space Points                    18225.0       20412       17496

 PW_GRID| Information for grid number                                          4
 PW_GRID| Grid distributed over                                     4 processors
 PW_GRID| Real space group dimensions                                     4    1
 PW_GRID| the grid is blocked:                                                NO
 PW_GRID| Cutoff [a.u.]                                                      5.6
 PW_GRID| spherical cutoff:                                                   NO
 PW_GRID|   Bounds   1             -7       7                Points:          15
 PW_GRID|   Bounds   2            -16      15                Points:          32
 PW_GRID|   Bounds   3            -16      15                Points:          32
 PW_GRID| Volume element (a.u.^3)  0.6043         Volume (a.u.^3)      9282.5169
 PW_GRID| Grid span                                                    FULLSPACE
 PW_GRID|   Distribution                         Average         Max         Min
 PW_GRID|   G-Vectors                             3840.0        3855        3825
 PW_GRID|   G-Rays                                 256.0         257         255
 PW_GRID|   Real Space Points                     3840.0        4096        3072

 POISSON| Solver                                                        PERIODIC
 POISSON| Periodicity                                                        XYZ

 RS_GRID| Information for grid number                                          1
 RS_GRID|   Bounds   1            -37      37                Points:          75
 RS_GRID|   Bounds   2            -80      79                Points:         160
 RS_GRID|   Bounds   3            -80      79                Points:         160
 RS_GRID| Real space fully replicated
 RS_GRID| Group size                                                           1

 RS_GRID| Information for grid number                                          2
 RS_GRID|   Bounds   1            -22      22                Points:          45
 RS_GRID|   Bounds   2            -48      47                Points:          96
 RS_GRID|   Bounds   3            -48      47                Points:          96
 RS_GRID| Real space fully replicated
 RS_GRID| Group size                                                           1

 RS_GRID| Information for grid number                                          3
 RS_GRID|   Bounds   1            -12      12                Points:          25
 RS_GRID|   Bounds   2            -27      26                Points:          54
 RS_GRID|   Bounds   3            -27      26                Points:          54
 RS_GRID| Real space fully replicated
 RS_GRID| Group size                                                           1

 RS_GRID| Information for grid number                                          4
 RS_GRID|   Bounds   1             -7       7                Points:          15
 RS_GRID|   Bounds   2            -16      15                Points:          32
 RS_GRID|   Bounds   3            -16      15                Points:          32
 RS_GRID| Real space fully replicated
 RS_GRID| Group size                                                           1

 DISTRIBUTION OF THE PARTICLES (ROWS)
              Process row      Number of particles         Number of matrix rows
                        0                       29                            -1
                        1                       28                            -1
                      Sum                       57                            -1

 DISTRIBUTION OF THE PARTICLES (COLUMNS)
              Process col      Number of particles      Number of matrix columns
                        0                       29                            -1
                        1                       28                            -1
                      Sum                       57                            -1

 -------------------------------------------------------------------------------
 -                                                                             -
 -  BSSE CALCULATION         FRAGMENT CONF: 10        FRAGMENT SUBCONF: 10     -
 -                           CHARGE =     0           MULTIPLICITY =     1     -
 -                                                                             -
 -                 ATOM INDEX                              ATOM NAME           -
 -                 ----------                              ---------           -
 -                      1                                   Zn                 -
 -                      2                                   Zn                 -
 -                      3                                   Zn                 -
 -                      4                                   Zn                 -
 -                      5                                   Zn                 -
 -                      6                                   Zn                 -
 -                      7                                   H                  -
 -                      8                                   H                  -
 -                      9                                   H                  -
 -                     10                                   H                  -
 -                     11                                   H                  -
 -                     12                                   H                  -
 -                     13                                   C                  -
 -                     14                                   C                  -
 -                     15                                   C                  -
 -                     16                                   C                  -
 -                     17                                   C                  -
 -                     18                                   C                  -
 -                     19                                   C                  -
 -                     20                                   C                  -
 -                     21                                   C                  -
 -                     22                                   C                  -
 -                     23                                   C                  -
 -                     24                                   C                  -
 -                     25                                   C                  -
 -                     26                                   C                  -
 -                     27                                   C                  -
 -                     28                                   C                  -
 -                     29                                   C                  -
 -                     30                                   C                  -
 -                     31                                   C                  -
 -                     32                                   C                  -
 -                     33                                   C                  -
 -                     34                                   C                  -
 -                     35                                   C                  -
 -                     36                                   C                  -
 -                     37                                   O                  -
 -                     38                                   O                  -
 -                     39                                   O                  -
 -                     40                                   O                  -
 -                     41                                   O                  -
 -                     42                                   O                  -
 -                     43                                   O                  -
 -                     44                                   O                  -
 -                     45                                   O                  -
 -                     46                                   O                  -
 -                     47                                   O                  -
 -                     48                                   O                  -
 -                     49                                   O                  -
 -                     50                                   O                  -
 -                     51                                   O                  -
 -                     52                                   O                  -
 -                     53                                   O                  -
 -                     54                                   O                  -
 -------------------------------------------------------------------------------

 CELL| Volume [angstrom^3]:                                             1375.527
 CELL| Vector a [angstrom]:       6.917     0.000    -1.071    |a| =       6.999
 CELL| Vector b [angstrom]:      -3.459    13.046    -7.086    |b| =      15.244
 CELL| Vector c [angstrom]:       0.000     0.000    15.244    |c| =      15.244
 CELL| Angle (b,c), alpha [degree]:                                      117.699
 CELL| Angle (a,c), beta  [degree]:                                       98.805
 CELL| Angle (a,b), gamma [degree]:                                       98.807
 CELL| Numerically orthorhombic:                                              NO

 CELL_REF| Volume [angstrom^3]:                                         1375.527
 CELL_REF| Vector a [angstrom     6.917     0.000    -1.071    |a| =       6.999
 CELL_REF| Vector b [angstrom    -3.459    13.046    -7.086    |b| =      15.244
 CELL_REF| Vector c [angstrom     0.000     0.000    15.244    |c| =      15.244
 CELL_REF| Angle (b,c), alpha [degree]:                                  117.699
 CELL_REF| Angle (a,c), beta  [degree]:                                   98.805
 CELL_REF| Angle (a,b), gamma [degree]:                                   98.807
 CELL_REF| Numerically orthorhombic:                                          NO

 *******************************************************************************
 *******************************************************************************
 **                                                                           **
 **     #####                         ##              ##                      **
 **    ##   ##            ##          ##              ##                      **
 **   ##     ##                       ##            ######                    **
 **   ##     ##  ##   ##  ##   #####  ##  ##   ####   ##    #####    #####    **
 **   ##     ##  ##   ##  ##  ##      ## ##   ##      ##   ##   ##  ##   ##   **
 **   ##  ## ##  ##   ##  ##  ##      ####     ###    ##   ######   ######    **
 **    ##  ###   ##   ##  ##  ##      ## ##      ##   ##   ##       ##        **
 **     #######   #####   ##   #####  ##  ##  ####    ##    #####   ##        **
 **           ##                                                    ##        **
 **                                                                           **
 **                                                ... make the atoms dance   **
 **                                                                           **
 **            Copyright (C) by CP2K developers group (2000 - 2017)           **
 **                                                                           **
 *******************************************************************************

 DFT| Spin restricted Kohn-Sham (RKS) calculation                            RKS
 DFT| Multiplicity                                                             1
 DFT| Number of spin states                                                    1
 DFT| Charge                                                                   0
 DFT| Self-interaction correction (SIC)                                       NO
 DFT| Cutoffs: density                                              1.000000E-10
 DFT|          gradient                                             1.000000E-10
 DFT|          tau                                                  1.000000E-10
 DFT|          cutoff_smoothing_range                               0.000000E+00
 DFT| XC density smoothing                                                  NONE
 DFT| XC derivatives                                                          PW
 FUNCTIONAL| ROUTINE=NEW
 FUNCTIONAL| PBE:
 FUNCTIONAL| J.P.Perdew, K.Burke, M.Ernzerhof, Phys. Rev. Letter, vol. 77, n 18,
 FUNCTIONAL|  pp. 3865-3868, (1996){spin unpolarized}                           
 vdW POTENTIAL|                                                   Pair Potential
 vdW POTENTIAL|          DFT-D3 (Version 3.1)
 vdW POTENTIAL|          Potential Form: S. Grimme et al, JCP 132: 154104 (2010)
 vdW POTENTIAL|          BJ Damping: S. Grimme et al, JCC 32: 1456 (2011)
 vdW POTENTIAL|          Cutoff Radius [Bohr]:                             20.00
 vdW POTENTIAL|          s6 Scaling Factor:                               1.0000
 vdW POTENTIAL|          a1 Damping Factor:                               0.4289
 vdW POTENTIAL|          s8 Scaling Factor:                               0.7875
 vdW POTENTIAL|          a2 Damping Factor:                               4.4407
 vdW POTENTIAL|          Cutoff for CN calculation:                   0.1000E-05

 QS| Method:                                                                 GPW
 QS| Density plane wave grid type                        NON-SPHERICAL FULLSPACE
 QS| Number of grid levels:                                                    4
 QS| Density cutoff [a.u.]:                                                150.0
 QS| Multi grid cutoff [a.u.]: 1) grid level                               150.0
 QS|                           2) grid level                                50.0
 QS|                           3) grid level                                16.7
 QS|                           4) grid level                                 5.6
 QS| Grid level progression factor:                                          3.0
 QS| Relative density cutoff [a.u.]:                                        15.0
 QS| Consistent realspace mapping and integration 
 QS| Interaction thresholds: eps_pgf_orb:                                1.0E-05
 QS|                         eps_filter_matrix:                          0.0E+00
 QS|                         eps_core_charge:                            1.0E-12
 QS|                         eps_rho_gspace:                             1.0E-10
 QS|                         eps_rho_rspace:                             1.0E-10
 QS|                         eps_gvg_rspace:                             1.0E-05
 QS|                         eps_ppl:                                    1.0E-02
 QS|                         eps_ppnl:                                   1.0E-07


 ATOMIC KIND INFORMATION

  1. Atomic kind: Zn                                    Number of atoms:       6

     Orbital Basis Set                                    DZVP-MOLOPT-SR-GTH-q12

       Number of orbital shell sets:                                           1
       Number of orbital shells:                                               7
       Number of primitive Cartesian functions:                                6
       Number of Cartesian basis functions:                                   30
       Number of spherical basis functions:                                   25
       Norm type:                                                              2

       Normalised Cartesian orbitals:

                        Set   Shell   Orbital            Exponent    Coefficient

                          1       1    2s                6.400813       0.070678
                                                         3.167793      -0.182901
                                                         1.341704       0.275787
                                                         0.545418       0.070077
                                                         0.222222      -0.163015
                                                         0.079830      -0.058340

                          1       2    3s                6.400813       0.159300
                                                         3.167793      -0.240359
                                                         1.341704      -0.028572
                                                         0.545418      -0.590243
                                                         0.222222       0.705234
                                                         0.079830      -0.232595

                          1       3    3px               6.400813       0.044197
                                                         3.167793      -0.065115
                                                         1.341704       0.233173
                                                         0.545418      -0.041743
                                                         0.222222      -0.119659
                                                         0.079830      -0.031199
                          1       3    3py               6.400813       0.044197
                                                         3.167793      -0.065115
                                                         1.341704       0.233173
                                                         0.545418      -0.041743
                                                         0.222222      -0.119659
                                                         0.079830      -0.031199
                          1       3    3pz               6.400813       0.044197
                                                         3.167793      -0.065115
                                                         1.341704       0.233173
                                                         0.545418      -0.041743
                                                         0.222222      -0.119659
                                                         0.079830      -0.031199

                          1       4    4px               6.400813       0.240176
                                                         3.167793      -0.408028
                                                         1.341704      -0.147214
                                                         0.545418      -0.102288
                                                         0.222222       0.357755
                                                         0.079830      -0.080257
                          1       4    4py               6.400813       0.240176
                                                         3.167793      -0.408028
                                                         1.341704      -0.147214
                                                         0.545418      -0.102288
                                                         0.222222       0.357755
                                                         0.079830      -0.080257
                          1       4    4pz               6.400813       0.240176
                                                         3.167793      -0.408028
                                                         1.341704      -0.147214
                                                         0.545418      -0.102288
                                                         0.222222       0.357755
                                                         0.079830      -0.080257

                          1       5    4dx2              6.400813      12.052935
                                                         3.167793       4.421864
                                                         1.341704       0.893324
                                                         0.545418       0.127232
                                                         0.222222       0.011466
[...]
 flops    64 x    64 x    85            177561600     100.0%      0.0%      0.0%
 flops    64 x    85 x    64            177561600     100.0%      0.0%      0.0%
 flops    85 x    64 x    64            177561600     100.0%      0.0%      0.0%
 flops    25 x     1 x    25            211860000     100.0%      0.0%      0.0%
 flops    25 x    13 x    85            223762500     100.0%      0.0%      0.0%
 flops    13 x    25 x    85            223762500     100.0%      0.0%      0.0%
 flops    85 x    85 x    64            235824000     100.0%      0.0%      0.0%
 flops    64 x    85 x    85            235824000     100.0%      0.0%      0.0%
 flops    85 x    64 x    85            235824000     100.0%      0.0%      0.0%
 flops    25 x    25 x    77            242550000     100.0%      0.0%      0.0%
 flops    25 x    25 x    64            252000000     100.0%      0.0%      0.0%
 flops    25 x    21 x    13            269041500     100.0%      0.0%      0.0%
 flops    13 x    21 x    25            269041500     100.0%      0.0%      0.0%
 flops    85 x    85 x    85            313203750     100.0%      0.0%      0.0%
 flops    13 x     8 x    13            324085216     100.0%      0.0%      0.0%
 flops    25 x    32 x     5            415872000     100.0%      0.0%      0.0%
 flops     5 x    32 x    25            415872000     100.0%      0.0%      0.0%
 flops    64 x    85 x   381            509869440     100.0%      0.0%      0.0%
 flops    85 x    64 x   381            509869440     100.0%      0.0%      0.0%
 flops    64 x    85 x   384            513884160     100.0%      0.0%      0.0%
 flops    85 x    64 x   384            513884160     100.0%      0.0%      0.0%
 flops   381 x    85 x    64            601065600     100.0%      0.0%      0.0%
 flops   381 x    64 x    85            601065600     100.0%      0.0%      0.0%
 flops   384 x    64 x    85            605798400     100.0%      0.0%      0.0%
 flops   384 x    85 x    64            605798400     100.0%      0.0%      0.0%
 flops    13 x    13 x    25            642014100     100.0%      0.0%      0.0%
 flops    25 x    13 x    13            642166200     100.0%      0.0%      0.0%
 flops    64 x    64 x    77            659800064     100.0%      0.0%      0.0%
 flops    64 x    77 x    64            659800064     100.0%      0.0%      0.0%
 flops    77 x    64 x    64            659800064     100.0%      0.0%      0.0%
 flops    85 x    85 x   381            677170350     100.0%      0.0%      0.0%
 flops    64 x    64 x    64            682098688     100.0%      0.0%      0.0%
 flops    85 x    85 x   384            682502400     100.0%      0.0%      0.0%
 flops    25 x    13 x    77            792341550     100.0%      0.0%      0.0%
 flops    13 x    25 x    77            792341550     100.0%      0.0%      0.0%
 flops    77 x    77 x    64            793821952     100.0%      0.0%      0.0%
 flops    64 x    77 x    77            793821952     100.0%      0.0%      0.0%
 flops    77 x    64 x    77            793821952     100.0%      0.0%      0.0%
 flops   381 x    85 x    85            798290250     100.0%      0.0%      0.0%
 flops   384 x    85 x    85            804576000     100.0%      0.0%      0.0%
 flops    25 x     1 x    13            817631100     100.0%      0.0%      0.0%
 flops    13 x     1 x    25            817631100     100.0%      0.0%      0.0%
 flops    25 x    13 x    64            827049600     100.0%      0.0%      0.0%
 flops    13 x    25 x    64            827049600     100.0%      0.0%      0.0%
 flops    13 x    13 x    85            892066500     100.0%      0.0%      0.0%
 flops    77 x    77 x    77            955067036     100.0%      0.0%      0.0%
 flops    13 x    21 x    13           1049261850     100.0%      0.0%      0.0%
 flops    64 x    64 x   363           1076477952     100.0%      0.0%      0.0%
 flops   363 x    64 x    64           1189478400     100.0%      0.0%      0.0%
 flops    64 x    77 x   363           1223582976     100.0%      0.0%      0.0%
 flops    77 x    64 x   363           1223582976     100.0%      0.0%      0.0%
 flops    64 x    77 x   381           1246705152     100.0%      0.0%      0.0%
 flops    77 x    64 x   381           1246705152     100.0%      0.0%      0.0%
 flops    64 x    77 x   384           1256521728     100.0%      0.0%      0.0%
 flops    77 x    64 x   384           1256521728     100.0%      0.0%      0.0%
 flops   363 x    77 x    64           1431091200     100.0%      0.0%      0.0%
 flops   363 x    64 x    77           1431091200     100.0%      0.0%      0.0%
 flops   381 x    77 x    64           1464503040     100.0%      0.0%      0.0%
 flops   381 x    64 x    77           1464503040     100.0%      0.0%      0.0%
 flops    77 x    77 x   363           1472123268     100.0%      0.0%      0.0%
 flops   384 x    64 x    77           1476034560     100.0%      0.0%      0.0%
 flops   384 x    77 x    64           1476034560     100.0%      0.0%      0.0%
 flops   381 x    85 x   381           1480642200     100.0%      0.0%      0.0%
 flops   381 x    85 x   384           1492300800     100.0%      0.0%      0.0%
 flops   384 x    85 x   381           1492300800     100.0%      0.0%      0.0%
 flops    64 x    64 x   381           1495031808     100.0%      0.0%      0.0%
 flops    77 x    77 x   381           1499942136     100.0%      0.0%      0.0%
 flops   384 x    85 x   384           1504051200     100.0%      0.0%      0.0%
 flops    64 x    64 x   384           1506803712     100.0%      0.0%      0.0%
 flops    77 x    77 x   384           1511752704     100.0%      0.0%      0.0%
 flops     5 x    32 x    13           1592248320     100.0%      0.0%      0.0%
 flops    13 x    32 x     5           1592248320     100.0%      0.0%      0.0%
 flops   381 x    64 x    64           1669816320     100.0%      0.0%      0.0%
 flops   384 x    64 x    64           1682964480     100.0%      0.0%      0.0%
 flops   363 x    77 x    77           1721781600     100.0%      0.0%      0.0%
 flops   381 x    77 x    77           1761980220     100.0%      0.0%      0.0%
 flops   384 x    77 x    77           1775854080     100.0%      0.0%      0.0%
 flops    25 x    32 x    25           2079360000     100.0%      0.0%      0.0%
 flops    13 x    13 x    13           2449624242     100.0%      0.0%      0.0%
 flops    13 x    13 x    77           3091576488     100.0%      0.0%      0.0%
 flops    13 x     1 x    13           3158125308     100.0%      0.0%      0.0%
 flops    13 x    13 x    64           3241295616     100.0%      0.0%      0.0%
 flops   381 x    77 x   381           3576767040     100.0%      0.0%      0.0%
 flops   381 x    77 x   384           3604930560     100.0%      0.0%      0.0%
 flops   384 x    77 x   381           3604930560     100.0%      0.0%      0.0%
 flops   384 x    77 x   384           3633315840     100.0%      0.0%      0.0%
 flops   381 x    64 x   381           4087733760     100.0%      0.0%      0.0%
 flops   384 x    64 x   381           4119920640     100.0%      0.0%      0.0%
 flops   381 x    64 x   384           4119920640     100.0%      0.0%      0.0%
 flops   384 x    64 x   384           4152360960     100.0%      0.0%      0.0%
 flops   363 x    64 x   363           5532189696     100.0%      0.0%      0.0%
 flops   363 x    77 x   363           6655915728     100.0%      0.0%      0.0%
 flops    25 x    32 x    13           7961241600     100.0%      0.0%      0.0%
 flops    13 x    32 x    25           7961241600     100.0%      0.0%      0.0%
 flops    13 x    32 x    13          30509167104     100.0%      0.0%      0.0%
 flops inhomo. stacks                    10629464     100.0%      0.0%      0.0%
 flops total                       177.183718E+09     100.0%      0.0%      0.0%
 flops max/rank                     50.747522E+09     100.0%      0.0%      0.0%
 matmuls inhomo. stacks                     25664     100.0%      0.0%      0.0%
 matmuls total                           21520949     100.0%      0.0%      0.0%
 number of processed stacks                296093     100.0%      0.0%      0.0%
 average stack size                                    72.7       0.0       0.0
 marketing flops                   189.352133E+09
 -------------------------------------------------------------------------------
 # multiplications                          36240
 max memory usage/rank             316.108800E+06
 # max total images/rank                        1
 # max 3D layers                                1
 # MPI messages exchanged                  289920
 MPI messages size (bytes):
  total size                        29.767862E+09
  min size                           0.000000E+00
  max size                           1.179648E+06
  average size                     102.676125E+03
 MPI breakdown and total messages size (bytes):
             size <=      128              180549                   441376
       128 < size <=     8192               51023                140668704
      8192 < size <=    32768                6945                209895632
     32768 < size <=   131072               12051                523071832
    131072 < size <=  4194304               39352              28893828816
   4194304 < size <= 16777216                   0                        0
  16777216 < size                               0                        0
 -------------------------------------------------------------------------------

 MEMORY| Estimated peak process memory [MiB]                                 302

 -------------------------------------------------------------------------------
 ----                             MULTIGRID INFO                            ----
 -------------------------------------------------------------------------------
 count for grid        1:          93968          cutoff [a.u.]          150.00
 count for grid        2:          47024          cutoff [a.u.]           50.00
 count for grid        3:          32144          cutoff [a.u.]           16.67
 count for grid        4:          11760          cutoff [a.u.]            5.56
 total gridlevel count  :         184896

 -------------------------------------------------------------------------------
 -                                                                             -
 -                         MESSAGE PASSING PERFORMANCE                         -
 -                                                                             -
 -------------------------------------------------------------------------------

 ROUTINE             CALLS      AVE VOLUME [Bytes]
 MP_Group             1347
 MP_Bcast            16503                 143496.
 MP_Allreduce       110774                     88.
 MP_Sync                24
 MP_Alltoall        116072                 537303.
 MP_ISendRecv         4203                1252451.
 MP_Wait           1163883
 MP_ISend           289512                  27187.
 MP_IRecv           289512                  26808.
 MP_Recv                26                 179461.
 MP_Memory         1466638
 -------------------------------------------------------------------------------


 -------------------------------------------------------------------------------
 -                                                                             -
 -                           R E F E R E N C E S                               -
 -                                                                             -
 -------------------------------------------------------------------------------
 
 CP2K version 5.1, the CP2K developers group (2017).
 CP2K is freely available from https://www.cp2k.org/ .

 Schuett, Ole; Messmer, Peter; Hutter, Juerg; VandeVondele, Joost. 
 Electronic Structure Calculations on Graphics Processing Units, John Wiley & Sons, Ltd, 173-190 (2016). 
 GPU-Accelerated Sparse Matrix-Matrix Multiplication for Linear Scaling Density Functional Theory.
 http://dx.doi.org/10.1002/9781118670712.ch8


 Borstnik, U; VandeVondele, J; Weber, V; Hutter, J. 
 PARALLEL COMPUTING, 40 (5-6), 47-58 (2014). 
 Sparse matrix multiplication: The distributed block-compressed sparse
 row library.
 http://dx.doi.org/10.1016/j.parco.2014.03.012


 Hutter, J; Iannuzzi, M; Schiffmann, F; VandeVondele, J. 
 WILEY INTERDISCIPLINARY REVIEWS-COMPUTATIONAL MOLECULAR SCIENCE, 4 (1), 15-25 (2014). 
 CP2K: atomistic simulations of condensed matter systems.
 http://dx.doi.org/10.1002/wcms.1159


 Grimme, S; Ehrlich, S; Goerigk, L. 
 JOURNAL OF COMPUTATIONAL CHEMISTRY, 32, 1456 (2011). 
 Effect of the damping function in dispersion corrected density functional theory.
 http://dx.doi.org/10.1002/jcc.21759


 Grimme, S; Antony, J; Ehrlich, S; Krieg, H. 
 JOURNAL OF CHEMICAL PHYSICS, 132 (15), 154104 (2010). 
 A consistent and accurate ab initio parametrization of density
 functional dispersion correction (DFT-D) for the 94 elements H-Pu.
 http://dx.doi.org/10.1063/1.3382344


 VandeVondele, J; Hutter, J. 
 JOURNAL OF CHEMICAL PHYSICS, 127 (11), 114105 (2007). 
 Gaussian basis sets for accurate calculations on molecular systems in
 gas and condensed phases.
 http://dx.doi.org/10.1063/1.2770708


 Krack, M. 
 THEORETICAL CHEMISTRY ACCOUNTS, 114 (1-3), 145-152 (2005). 
 Pseudopotentials for H to Kr optimized for gradient-corrected
 exchange-correlation functionals.
 http://dx.doi.org/10.1007/s00214-005-0655-y


 VandeVondele, J; Krack, M; Mohamed, F; Parrinello, M; Chassaing, T;
 Hutter, J. COMPUTER PHYSICS COMMUNICATIONS, 167 (2), 103-128 (2005). 
 QUICKSTEP: Fast and accurate density functional calculations using a
 mixed Gaussian and plane waves approach.
 http://dx.doi.org/10.1016/j.cpc.2004.12.014


 Frigo, M; Johnson, SG. 
 PROCEEDINGS OF THE IEEE, 93 (2), 216-231 (2005). 
 The design and implementation of FFTW3.
 http://dx.doi.org/10.1109/JPROC.2004.840301


 VandeVondele, J; Hutter, J. 
 JOURNAL OF CHEMICAL PHYSICS, 118 (10), 4365-4369 (2003). 
 An efficient orbital transformation method for electronic structure
 calculations.
 http://dx.doi.org/10.1063/1.1543154


 Hartwigsen, C; Goedecker, S; Hutter, J. 
 PHYSICAL REVIEW B, 58 (7), 3641-3662 (1998). 
 Relativistic separable dual-space Gaussian pseudopotentials from H to Rn.
 http://dx.doi.org/10.1103/PhysRevB.58.3641


 Lippert, G; Hutter, J; Parrinello, M. 
 MOLECULAR PHYSICS, 92 (3), 477-487 (1997). 
 A hybrid Gaussian and plane wave density functional scheme.
 http://dx.doi.org/10.1080/002689797170220


 Perdew, JP; Burke, K; Ernzerhof, M. 
 PHYSICAL REVIEW LETTERS, 77 (18), 3865-3868 (1996). 
 Generalized gradient approximation made simple.
 http://dx.doi.org/10.1103/PhysRevLett.77.3865


 Goedecker, S; Teter, M; Hutter, J. 
 PHYSICAL REVIEW B, 54 (3), 1703-1710 (1996). 
 Separable dual-space Gaussian pseudopotentials.
 http://dx.doi.org/10.1103/PhysRevB.54.1703


 -------------------------------------------------------------------------------
 -                                                                             -
 -                                T I M I N G                                  -
 -                                                                             -
 -------------------------------------------------------------------------------
 SUBROUTINE                       CALLS  ASD         SELF TIME        TOTAL TIME
                                MAXIMUM       AVERAGE  MAXIMUM  AVERAGE  MAXIMUM
 CP2K                                 1  1.0    0.015    0.024  450.206  450.207
 qs_energies                          5  2.0    0.000    0.000  448.421  448.421
 scf_env_do_scf                       5  3.0    0.000    0.001  417.768  417.768
 scf_env_do_scf_inner_loop          172  4.0    0.008    0.012  407.619  407.619
 qs_ks_update_qs_env                178  5.0    0.001    0.001  261.804  261.884
 rebuild_ks_matrix                  172  6.0    0.000    0.000  261.731  261.810
 qs_ks_build_kohn_sham_matrix       172  7.0    0.021    0.022  261.731  261.810
 qs_rho_update_rho                  177  5.0    0.001    0.001  145.677  145.737
 calculate_rho_elec                 177  6.0  103.013  110.370  145.676  145.736
 pw_transfer                       3298  9.6    0.261    0.264  129.457  131.163
 fft_wrap_pw1pw2                   2954 10.7    0.037    0.038  127.466  129.169
 fft_wrap_pw1pw2_150               1907 11.8   12.083   12.438  122.593  124.255
 sum_up_and_integrate               172  8.0    0.433    0.442  114.868  122.193
 integrate_v_rspace                 172  9.0   95.228  102.557  114.435  121.758
 qs_vxc_create                      172  8.0    0.003    0.003  117.912  118.035
 xc_vxc_pw_create                   172  9.0    1.498    1.723  117.909  118.032
 fft3d_ps                          2954 12.7   53.960   54.505   88.331   91.090
 xc_rho_set_and_dset_create         172 10.0    0.768    0.805   65.544   66.339
 dbcsr_multiply_generic           36240  8.1    0.753    0.772   44.912   52.245
 density_rs2pw                      177  7.0    0.011    0.011   41.051   46.885
 make_m2s                         72480  9.1    0.428    0.435   22.213   28.819
 make_images                      72480 10.1    0.845    0.868   20.262   26.896
 scf_post_calculation_gpw             5  3.0    0.000    0.000   25.955   25.955
 rs_pw_transfer                    1401  9.5    0.023    0.024   20.052   25.954
 make_lumo                            5  4.0    0.000    0.000   25.869   25.869
 ot_eigensolver                       5  5.0    0.028    0.031   25.855   25.855
 mp_waitall_1                   1163883 12.2   17.569   24.217   17.569   24.217
 xc_functional_eval                 172 11.0    0.002    0.002   23.327   24.076
 pbe_lda_eval                       172 12.0   23.325   24.074   23.325   24.074
 x_to_yz                           1553 14.2   13.304   13.535   19.958   20.122
 multiply_cannon                  36240  9.1    1.618    1.731   18.031   19.534
 rs_pw_transfer_RS2PW_150           182  8.9    2.919    3.003   13.624   19.482
 potential_pw2rs                    172 10.0    0.033    0.036   19.185   19.192
 mp_alltoall_z22v                  2954 14.7   14.237   17.639   14.237   17.639
 yz_to_x                           1401 13.1    6.768    7.023   14.351   17.465
 make_images_sizes                72480 11.1    0.043    0.045    9.563   16.115
 mp_alltoall_i44                  72480 12.1    9.520   16.070    9.520   16.070
 pw_scatter_p                      1553 13.2   14.274   14.433   14.274   14.433
 pw_gather_p                       1401 12.1   12.364   13.032   12.364   13.032
 ot_mini                           2615  6.1    0.009    0.010   12.756   12.833
 qs_scf_new_mos                     172  5.0    0.001    0.001   11.670   11.783
 qs_scf_loop_do_ot                  172  6.0    0.001    0.001   11.668   11.782
 multiply_cannon_multrec          72480 10.1    8.319   10.944    9.123   11.196
 ot_scf_mini                        172  7.0    0.006    0.007   10.720   10.807
 init_scf_loop                        6  4.0    0.000    0.000   10.145   10.145
 qs_ot_get_derivative              1396  7.2    0.007    0.008    9.409    9.482
 pw_derive                         1032 10.5    9.216    9.381    9.216    9.381
 -------------------------------------------------------------------------------

 The number of warnings for this run is : 0
 
 -------------------------------------------------------------------------------
  **** **** ******  **  PROGRAM ENDED AT                 2020-01-15 16:17:25.880
 ***** ** ***  *** **   PROGRAM RAN ON                             daniele-Ubu18
 **    ****   ******    PROGRAM RAN BY                                   daniele
 ***** **    ** ** **   PROGRAM PROCESS ID                                 25190
  **** **  *******  **  PROGRAM STOPPED IN /home/daniele/dev_aiida/aiida_run/42/
                                           44/db1b-725a-45fb-864b-3c8fb1336084

