 DBCSR| Multiplication driver                                               BLAS
 DBCSR| Multrec recursion limit                                              512
 DBCSR| Multiplication stack size                                           1000
 DBCSR| Maximum elements for images                                    UNLIMITED
 DBCSR| Multiplicative factor virtual images                                   1
 DBCSR| Multiplication size stacks                                             3
 DBCSR| Number of 3D layers                                               SINGLE
 DBCSR| Use MPI memory allocation                                              T
 DBCSR| Use RMA algorithm                                                      F
 DBCSR| Use Communication thread                                               T
 DBCSR| Communication thread load                                             87


  **** **** ******  **  PROGRAM STARTED AT               2019-09-26 00:57:58.430
 ***** ** ***  *** **   PROGRAM STARTED ON                          i25r05c03s07
 **    ****   ******    PROGRAM STARTED BY                               di52dem
 ***** **    ** ** **   PROGRAM PROCESS ID                                  9470
  **** **  *******  **  PROGRAM STARTED IN   /gpfs/work/pr27sa/di52dem/CHOLE/DOS

 CP2K| version string:                    CP2K version 6.0 (Development Version)
 CP2K| source code revision number:                                             
 CP2K| cp2kflags: omp libint fftw3 parallel mpi3 scalapack                      
 CP2K| is freely available from                            https://www.cp2k.org/
 CP2K| Program compiled at                           Mo 5. Nov 12:30:51 CET 2018
 CP2K| Program compiled on                                               login10
 CP2K| Program compiled for                                                 thin
 CP2K| Data directory path      /lrz/noarch/src/applications/cp2k/cp2k/cp2k/data
 CP2K| Input file name                                         RuTBPZn-1.restart

 GLOBAL| Force Environment number                                              1
 GLOBAL| Basis set file name            /home/hpc/pr27sa/di52dem/data/BASIS_MOLO
 GLOBAL| Potential file name            /home/hpc/pr27sa/di52dem/data/GTH_POTENT
 GLOBAL| MM Potential file name                                     MM_POTENTIAL
 GLOBAL| Coordinate file name                                      __STD_INPUT__
 GLOBAL| Method name                                                        CP2K
 GLOBAL| Project name                                                    RuTBPZn
 GLOBAL| Preferred FFT library                                             FFTW3
 GLOBAL| Preferred diagonalization lib.                                       SL
 GLOBAL| Run type                                                         ENERGY
 GLOBAL| All-to-all communication in single precision                          F
 GLOBAL| FFTs using library dependent lengths                                  F
 GLOBAL| Global print level                                               MEDIUM
 GLOBAL| Total number of message passing processes                           420
 GLOBAL| Number of threads for this process                                    1
 GLOBAL| This output is from process                                           0
 GLOBAL| CPU model name :  Intel(R) Xeon(R) CPU E5-2697 v3 @ 2.60GHz

 MEMORY| system memory details [Kb]
 MEMORY|                        rank 0           min           max       average
 MEMORY| MemTotal             65847228      65847228      65852672      65847590
 MEMORY| MemFree              59271816      59271816      59621200      59424919
 MEMORY| Buffers                     0             0             0             0
 MEMORY| Cached                2846444       2788080       2949152       2811576
 MEMORY| Slab                   228484        210304        234680        225792
 MEMORY| SReclaimable            33748         32704         44652         35625
 MEMORY| MemLikelyFree        62152008      62152008      62445816      62272121


 *** Fundamental physical constants (SI units) ***

 *** Literature: B. J. Mohr and B. N. Taylor,
 ***             CODATA recommended values of the fundamental physical
 ***             constants: 2006, Web Version 5.1
 ***             http://physics.nist.gov/constants

 Speed of light in vacuum [m/s]                             2.99792458000000E+08
 Magnetic constant or permeability of vacuum [N/A**2]       1.25663706143592E-06
 Electric constant or permittivity of vacuum [F/m]          8.85418781762039E-12
 Planck constant (h) [J*s]                                  6.62606896000000E-34
 Planck constant (h-bar) [J*s]                              1.05457162825177E-34
 Elementary charge [C]                                      1.60217648700000E-19
 Electron mass [kg]                                         9.10938215000000E-31
 Electron g factor [ ]                                     -2.00231930436220E+00
 Proton mass [kg]                                           1.67262163700000E-27
 Fine-structure constant                                    7.29735253760000E-03
 Rydberg constant [1/m]                                     1.09737315685270E+07
 Avogadro constant [1/mol]                                  6.02214179000000E+23
 Boltzmann constant [J/K]                                   1.38065040000000E-23
 Atomic mass unit [kg]                                      1.66053878200000E-27
 Bohr radius [m]                                            5.29177208590000E-11

 *** Conversion factors ***

 [u] -> [a.u.]                                              1.82288848426455E+03
 [Angstrom] -> [Bohr] = [a.u.]                              1.88972613288564E+00
 [a.u.] = [Bohr] -> [Angstrom]                              5.29177208590000E-01
 [a.u.] -> [s]                                              2.41888432650478E-17
 [a.u.] -> [fs]                                             2.41888432650478E-02
 [a.u.] -> [J]                                              4.35974393937059E-18
 [a.u.] -> [N]                                              8.23872205491840E-08
 [a.u.] -> [K]                                              3.15774647902944E+05
 [a.u.] -> [kJ/mol]                                         2.62549961709828E+03
 [a.u.] -> [kcal/mol]                                       6.27509468713739E+02
 [a.u.] -> [Pa]                                             2.94210107994716E+13
 [a.u.] -> [bar]                                            2.94210107994716E+08
 [a.u.] -> [atm]                                            2.90362800883016E+08
 [a.u.] -> [eV]                                             2.72113838565563E+01
 [a.u.] -> [Hz]                                             6.57968392072181E+15
 [a.u.] -> [1/cm] (wave numbers)                            2.19474631370540E+05
 [a.u./Bohr**2] -> [1/cm]                                   5.14048714338585E+03
 

 CELL_TOP| Volume [angstrom^3]:                                         4122.552
 CELL_TOP| Vector a [angstrom     8.512     0.000     0.000    |a| =       8.512
 CELL_TOP| Vector b [angstrom     0.132    21.844     0.000    |b| =      21.844
 CELL_TOP| Vector c [angstrom    -0.115     0.843    22.173    |c| =      22.190
 CELL_TOP| Angle (b,c), alpha [degree]:                                   87.826
 CELL_TOP| Angle (a,c), beta  [degree]:                                   90.298
 CELL_TOP| Angle (a,b), gamma [degree]:                                   89.654
 CELL_TOP| Requested initial symmetry:                                 TRICLINIC
 CELL_TOP| Numerically orthorhombic:                                          NO

 GENERATE|  Preliminary Number of Bonds generated:                             0
 GENERATE|  Achieved consistency in connectivity generation.

 CELL| Volume [angstrom^3]:                                             4122.552
 CELL| Vector a [angstrom]:       8.512     0.000     0.000    |a| =       8.512
 CELL| Vector b [angstrom]:       0.132    21.844     0.000    |b| =      21.844
 CELL| Vector c [angstrom]:      -0.115     0.843    22.173    |c| =      22.190
 CELL| Angle (b,c), alpha [degree]:                                       87.826
 CELL| Angle (a,c), beta  [degree]:                                       90.298
 CELL| Angle (a,b), gamma [degree]:                                       89.654
 CELL| Requested initial symmetry:                                     TRICLINIC
 CELL| Numerically orthorhombic:                                              NO

 CELL_REF| Volume [angstrom^3]:                                         4122.552
 CELL_REF| Vector a [angstrom     8.512     0.000     0.000    |a| =       8.512
 CELL_REF| Vector b [angstrom     0.132    21.844     0.000    |b| =      21.844
 CELL_REF| Vector c [angstrom    -0.115     0.843    22.173    |c| =      22.190
 CELL_REF| Angle (b,c), alpha [degree]:                                   87.826
 CELL_REF| Angle (a,c), beta  [degree]:                                   90.298
 CELL_REF| Angle (a,b), gamma [degree]:                                   89.654
 CELL_REF| Requested initial symmetry:                                 TRICLINIC
 CELL_REF| Numerically orthorhombic:                                          NO

 *******************************************************************************
 *******************************************************************************
 **                                                                           **
 **     #####                         ##              ##                      **
 **    ##   ##            ##          ##              ##                      **
 **   ##     ##                       ##            ######                    **
 **   ##     ##  ##   ##  ##   #####  ##  ##   ####   ##    #####    #####    **
 **   ##     ##  ##   ##  ##  ##      ## ##   ##      ##   ##   ##  ##   ##   **
 **   ##  ## ##  ##   ##  ##  ##      ####     ###    ##   ######   ######    **
 **    ##  ###   ##   ##  ##  ##      ## ##      ##   ##   ##       ##        **
 **     #######   #####   ##   #####  ##  ##  ####    ##    #####   ##        **
 **           ##                                                    ##        **
 **                                                                           **
 **                                                ... make the atoms dance   **
 **                                                                           **
 **            Copyright (C) by CP2K developers group (2000 - 2017)           **
 **                                                                           **
 *******************************************************************************

 DFT| Spin unrestricted (spin-polarized) Kohn-Sham calculation               UKS
 DFT| Multiplicity                                                             2
 DFT| Number of spin states                                                    2
 DFT| Charge                                                                   1
 DFT| Self-interaction correction (SIC)                                       NO
 DFT| Cutoffs: density                                              1.000000E-10
 DFT|          gradient                                             1.000000E-10
 DFT|          tau                                                  1.000000E-10
 DFT|          cutoff_smoothing_range                               0.000000E+00
 DFT| XC density smoothing                                                  NONE
 DFT| XC derivatives                                                          PW
 FUNCTIONAL| ROUTINE=NEW
 FUNCTIONAL| PBE:
 FUNCTIONAL| J.P.Perdew, K.Burke, M.Ernzerhof, Phys. Rev. Letter, vol. 77, n 18,
 FUNCTIONAL|  pp. 3865-3868, (1996)sx=0.725sc=1.000{spin polarized}             
 FUNCTIONAL| PBE_HOLE_T_C_LR:
 FUNCTIONAL| {LSD version}                                                      
 vdW POTENTIAL|                                                   Pair Potential
 vdW POTENTIAL|          DFT-D3 (Version 3.1)
 vdW POTENTIAL|          Potential Form: S. Grimme et al, JCP 132: 154104 (2010)
 vdW POTENTIAL|          BJ Damping: S. Grimme et al, JCC 32: 1456 (2011)
 vdW POTENTIAL|          Cutoff Radius [Bohr]:                              7.94
 vdW POTENTIAL|          s6 Scaling Factor:                               1.0000
 vdW POTENTIAL|          a1 Damping Factor:                               0.4145
 vdW POTENTIAL|          s8 Scaling Factor:                               1.2177
 vdW POTENTIAL|          a2 Damping Factor:                               4.8593
 vdW POTENTIAL|          Cutoff for CN calculation:                   0.1000E-05

 QS| Method:                                                                 GPW
 QS| Density plane wave grid type                        NON-SPHERICAL FULLSPACE
 QS| Number of grid levels:                                                    5
 QS| Density cutoff [a.u.]:                                                350.0
 QS| Multi grid cutoff [a.u.]: 1) grid level                               350.0
 QS|                           2) grid level                               116.7
 QS|                           3) grid level                                38.9
 QS|                           4) grid level                                13.0
 QS|                           5) grid level                                 4.3
 QS| Grid level progression factor:                                          3.0
 QS| Relative density cutoff [a.u.]:                                        30.0
 QS| Consistent realspace mapping and integration 
 QS| Interaction thresholds: eps_pgf_orb:                                1.0E-31
 QS|                         eps_filter_matrix:                          0.0E+00
 QS|                         eps_core_charge:                            1.0E-12
 QS|                         eps_rho_gspace:                             1.0E-10
 QS|                         eps_rho_rspace:                             1.0E-10
 QS|                         eps_gvg_rspace:                             1.0E-05
 QS|                         eps_ppl:                                    1.0E-02
 QS|                         eps_ppnl:                                   1.0E-07


 ATOMIC KIND INFORMATION

  1. Atomic kind: H                                     Number of atoms:      48

     Orbital Basis Set                                           DZVP-MOLOPT-GTH

       Number of orbital shell sets:                                           1
       Number of orbital shells:                                               3
       Number of primitive Cartesian functions:                                7
       Number of Cartesian basis functions:                                    5
       Number of spherical basis functions:                                    5
       Norm type:                                                              2

       Normalised Cartesian orbitals:

                        Set   Shell   Orbital            Exponent    Coefficient

                          1       1    2s               11.478000       0.129129
                                                         3.700759       0.177012
                                                         1.446884       0.141285
                                                         0.716815       0.245670
                                                         0.247919       0.094768
                                                         0.066918       0.004062
                                                         0.021708      -0.000053

                          1       2    3s               11.478000      -0.079256
                                                         3.700759      -0.152992
                                                         1.446884       0.015066
                                                         0.716815      -0.331234
                                                         0.247919       0.210690
                                                         0.066918       0.058630
                                                         0.021708      -0.003429

                          1       3    3px              11.478000       0.325290
                                                         3.700759       0.187466
                                                         1.446884       0.443300
                                                         0.716815       0.267738
                                                         0.247919       0.088285
                                                         0.066918       0.019092
                                                         0.021708       0.000629
                          1       3    3py              11.478000       0.325290
                                                         3.700759       0.187466
                                                         1.446884       0.443300
                                                         0.716815       0.267738
                                                         0.247919       0.088285
                                                         0.066918       0.019092
                                                         0.021708       0.000629
                          1       3    3pz              11.478000       0.325290
                                                         3.700759       0.187466
                                                         1.446884       0.443300
                                                         0.716815       0.267738
                                                         0.247919       0.088285
                                                         0.066918       0.019092
                                                         0.021708       0.000629

     Auxiliary Fit Basis Set                                               pFIT3

       Number of orbital shell sets:                                           4
       Number of orbital shells:                                               4
       Number of primitive Cartesian functions:                                4
       Number of Cartesian basis functions:                                    6
       Number of spherical basis functions:                                    6
       Norm type:                                                              2

       Normalised Cartesian orbitals:

                        Set   Shell   Orbital            Exponent    Coefficient

                          1       1    1s                0.113290       0.139173

                          2       1    1s                0.551250       0.455955

                          3       1    1s                3.585030       1.856862

                          4       1    1px               1.000000       1.425411
                          4       1    1py               1.000000       1.425411
                          4       1    1pz               1.000000       1.425411

     GTH Potential information for                                    GTH-PBE-q1

       Description:                       Goedecker-Teter-Hutter pseudopotential
                                           Goedecker et al., PRB 54, 1703 (1996)
                                          Hartwigsen et al., PRB 58, 3641 (1998)
                                                      Krack, TCA 114, 145 (2005)

       Gaussian exponent of the core charge distribution:              12.500000
       Electronic configuration (s p d ...):                                   1

       Parameters of the local part of the GTH pseudopotential:

                          rloc        C1          C2          C3          C4
                        0.200000   -4.178900    0.724463

  2. Atomic kind: O                                     Number of atoms:      24

     Orbital Basis Set                                           DZVP-MOLOPT-GTH

       Number of orbital shell sets:                                           1
       Number of orbital shells:                                               5
       Number of primitive Cartesian functions:                                7
       Number of Cartesian basis functions:                                   14
       Number of spherical basis functions:                                   13
       Norm type:                                                              2

       Normalised Cartesian orbitals:

                        Set   Shell   Orbital            Exponent    Coefficient

                          1       1    2s               12.015955      -0.284499
                                                         5.108150      -0.322498
                                                         2.048398       0.148191
                                                         0.832382       0.295475
                                                         0.352316       0.150829
                                                         0.142977       0.015788
                                                         0.046761      -0.000019

                          1       2    3s               12.015955       0.725622
                                                         5.108150       0.644384
                                                         2.048398      -0.157350
                                                         0.832382      -0.853528
                                                         0.352316       0.146068
                                                         0.142977       0.153978
                                                         0.046761       0.000658

                          1       3    3px              12.015955       1.192141
                                                         5.108150       1.354170
                                                         2.048398       0.897267
                                                         0.832382       0.408839
                                                         0.352316       0.116648
                                                         0.142977       0.022184
                                                         0.046761       0.000308
                          1       3    3py              12.015955       1.192141
                                                         5.108150       1.354170
                                                         2.048398       0.897267
                                                         0.832382       0.408839
                                                         0.352316       0.116648
                                                         0.142977       0.022184
                                                         0.046761       0.000308
                          1       3    3pz              12.015955       1.192141
                                                         5.108150       1.354170
                                                         2.048398       0.897267
                                                         0.832382       0.408839
                                                         0.352316       0.116648
                                                         0.142977       0.022184
                                                         0.046761       0.000308

                          1       4    4px              12.015955      -1.062381
                                                         5.108150      -1.285791
                                                         2.048398      -0.727000
                                                         0.832382      -0.522764
                                                         0.352316       0.182681
                                                         0.142977       0.087560
                                                         0.046761       0.000981
                          1       4    4py              12.015955      -1.062381
                                                         5.108150      -1.285791
                                                         2.048398      -0.727000
                                                         0.832382      -0.522764
                                                         0.352316       0.182681
                                                         0.142977       0.087560
                                                         0.046761       0.000981
                          1       4    4pz              12.015955      -1.062381
                                                         5.108150      -1.285791
                                                         2.048398      -0.727000
                                                         0.832382      -0.522764
                                                         0.352316       0.182681
                                                         0.142977       0.087560
                                                         0.046761       0.000981

                          1       5    4dx2             12.015955       1.125955
                                                         5.108150       1.160468
                                                         2.048398       0.999335
                                                         0.832382       0.756334
                                                         0.352316       0.048604
                                                         0.142977       0.010378
                                                         0.046761      -0.000027
                          1       5    4dxy             12.015955       1.950212
                                                         5.108150       2.009990
                                                         2.048398       1.730899
                                                         0.832382       1.310009
                                                         0.352316       0.084185
                                                         0.142977       0.017974
                                                         0.046761      -0.000046
                          1       5    4dxz             12.015955       1.950212
                                                         5.108150       2.009990
                                                         2.048398       1.730899
                                                         0.832382       1.310009
                                                         0.352316       0.084185
                                                         0.142977       0.017974
                                                         0.046761      -0.000046
                          1       5    4dy2             12.015955       1.125955
                                                         5.108150       1.160468
                                                         2.048398       0.999335
                                                         0.832382       0.756334
                                                         0.352316       0.048604
                                                         0.142977       0.010378
                                                         0.046761      -0.000027
                          1       5    4dyz             12.015955       1.950212
                                                         5.108150       2.009990
                                                         2.048398       1.730899
                                                         0.832382       1.310009
                                                         0.352316       0.084185
                                                         0.142977       0.017974
                                                         0.046761      -0.000046
                          1       5    4dz2             12.015955       1.125955
                                                         5.108150       1.160468
                                                         2.048398       0.999335
                                                         0.832382       0.756334
                                                         0.352316       0.048604
                                                         0.142977       0.010378
                                                         0.046761      -0.000027

     Auxiliary Fit Basis Set                                               pFIT3

       Number of orbital shell sets:                                           7
       Number of orbital shells:                                               7
       Number of primitive Cartesian functions:                                7
       Number of Cartesian basis functions:                                   18
       Number of spherical basis functions:                                   17
       Norm type:                                                              2

       Normalised Cartesian orbitals:

                        Set   Shell   Orbital            Exponent    Coefficient

                          1       1    1s                0.270610       0.267404

                          2       1    1s                0.884930       0.650267

                          3       1    1s                8.504090       3.549204

                          4       1    1px               0.310400       0.330250
                          4       1    1py               0.310400       0.330250
                          4       1    1pz               0.310400       0.330250

                          5       1    1px               1.382560       2.136954
                          5       1    1py               1.382560       2.136954
                          5       1    1pz               1.382560       2.136954

                          6       1    1px               6.082640      13.616178
                          6       1    1py               6.082640      13.616178
                          6       1    1pz               6.082640      13.616178

                          7       1    1dx2              1.000000       1.645923
                          7       1    1dxy              1.000000       2.850822
                          7       1    1dxz              1.000000       2.850822
                          7       1    1dy2              1.000000       1.645923
                          7       1    1dyz              1.000000       2.850822
                          7       1    1dz2              1.000000       1.645923

     GTH Potential information for                                    GTH-PBE-q6

       Description:                       Goedecker-Teter-Hutter pseudopotential
                                           Goedecker et al., PRB 54, 1703 (1996)
                                          Hartwigsen et al., PRB 58, 3641 (1998)
                                                      Krack, TCA 114, 145 (2005)

       Gaussian exponent of the core charge distribution:               8.360253
       Electronic configuration (s p d ...):                               2   4

       Parameters of the local part of the GTH pseudopotential:

                          rloc        C1          C2          C3          C4
                        0.244554  -16.667215    2.487311

       Parameters of the non-local part of the GTH pseudopotential:

                   l      r(l)      h(i,j,l)

                   0    0.220956   18.337458
                   1    0.211332

  3. Atomic kind: Ru2                                   Number of atoms:       2

     Orbital Basis Set                                        TZVP-MOLOPT-SR-GTH

       Number of orbital shell sets:                                           1
       Number of orbital shells:                                              11
       Number of primitive Cartesian functions:                                7
       Number of Cartesian basis functions:                                   41
       Number of spherical basis functions:                                   35
       Norm type:                                                              2

       Normalised Cartesian orbitals:

                        Set   Shell   Orbital            Exponent    Coefficient

                          1       1    2s                2.787486      -0.035911
                                                         2.671514       1.170562
                                                         1.595751      -0.495392
                                                         0.821527      -0.299784
                                                         0.376346       0.034031
                                                         0.192697      -0.172662
                                                         0.068098       0.012654

                          1       2    3s                2.787486       0.837410
                                                         2.671514      -1.126161
                                                         1.595751       0.796690
                                                         0.821527       0.068723
                                                         0.376346       0.165037
                                                         0.192697      -0.256257
                                                         0.068098      -0.021879

                          1       3    4s                2.787486       1.543179
                                                         2.671514      -0.756514
                                                         1.595751      -0.363038
                                                         0.821527      -0.436080
                                                         0.376346      -0.026105
                                                         0.192697       0.053413
                                                         0.068098       0.088194

                          1       4    5s                2.787486       0.424746
                                                         2.671514       0.484630
                                                         1.595751       0.264441
                                                         0.821527       0.033970
                                                         0.376346       0.022015
                                                         0.192697       0.024911
                                                         0.068098      -0.000524

                          1       5    3px               2.787486     -16.429590
                                                         2.671514      16.176792
                                                         1.595751       0.162668
                                                         0.821527       0.826804
                                                         0.376346       0.016890
                                                         0.192697       0.011716
                                                         0.068098      -0.021048
                          1       5    3py               2.787486     -16.429590
                                                         2.671514      16.176792
                                                         1.595751       0.162668
                                                         0.821527       0.826804
                                                         0.376346       0.016890
                                                         0.192697       0.011716
                                                         0.068098      -0.021048
                          1       5    3pz               2.787486     -16.429590
                                                         2.671514      16.176792
                                                         1.595751       0.162668
                                                         0.821527       0.826804
                                                         0.376346       0.016890
                                                         0.192697       0.011716
                                                         0.068098      -0.021048

                          1       6    4px               2.787486       0.395319
                                                         2.671514       0.127618
                                                         1.595751      -0.584832
                                                         0.821527      -0.019526
                                                         0.376346      -0.114199
                                                         0.192697      -0.050257
                                                         0.068098      -0.025180
                          1       6    4py               2.787486       0.395319
                                                         2.671514       0.127618
                                                         1.595751      -0.584832
                                                         0.821527      -0.019526
                                                         0.376346      -0.114199
                                                         0.192697      -0.050257
                                                         0.068098      -0.025180
                          1       6    4pz               2.787486       0.395319
                                                         2.671514       0.127618
                                                         1.595751      -0.584832
                                                         0.821527      -0.019526
                                                         0.376346      -0.114199
                                                         0.192697      -0.050257
                                                         0.068098      -0.025180

                          1       7    5px               2.787486      -0.867403
                                                         2.671514      -0.444375
                                                         1.595751       2.239691
                                                         0.821527      -0.199183
                                                         0.376346       0.017014
                                                         0.192697      -0.215277
                                                         0.068098       0.010057
                          1       7    5py               2.787486      -0.867403
                                                         2.671514      -0.444375
                                                         1.595751       2.239691
                                                         0.821527      -0.199183
                                                         0.376346       0.017014
                                                         0.192697      -0.215277
                                                         0.068098       0.010057
                          1       7    5pz               2.787486      -0.867403
                                                         2.671514      -0.444375
                                                         1.595751       2.239691
                                                         0.821527      -0.199183
                                                         0.376346       0.017014
                                                         0.192697      -0.215277
                                                         0.068098       0.010057

                          1       8    4dx2              2.787486      16.202439
                                                         2.671514     -16.379409
                                                         1.595751      -0.576493
                                                         0.821527      -0.490476
                                                         0.376346      -0.080717
                                                         0.192697      -0.013414
                                                         0.068098      -0.001331
                          1       8    4dxy              2.787486      28.063448
                                                         2.671514     -28.369969
                                                         1.595751      -0.998515
                                                         0.821527      -0.849530
                                                         0.376346      -0.139806
                                                         0.192697      -0.023233
                                                         0.068098      -0.002306
                          1       8    4dxz              2.787486      28.063448
                                                         2.671514     -28.369969
                                                         1.595751      -0.998515
                                                         0.821527      -0.849530
                                                         0.376346      -0.139806
                                                         0.192697      -0.023233
                                                         0.068098      -0.002306
                          1       8    4dy2              2.787486      16.202439
                                                         2.671514     -16.379409
                                                         1.595751      -0.576493
                                                         0.821527      -0.490476
                                                         0.376346      -0.080717
                                                         0.192697      -0.013414
                                                         0.068098      -0.001331
                          1       8    4dyz              2.787486      28.063448
                                                         2.671514     -28.369969
                                                         1.595751      -0.998515
                                                         0.821527      -0.849530
                                                         0.376346      -0.139806
                                                         0.192697      -0.023233
                                                         0.068098      -0.002306
                          1       8    4dz2              2.787486      16.202439
                                                         2.671514     -16.379409
                                                         1.595751      -0.576493
                                                         0.821527      -0.490476
                                                         0.376346      -0.080717
                                                         0.192697      -0.013414
                                                         0.068098      -0.001331

                          1       9    5dx2              2.787486       0.151242
                                                         2.671514       0.186041
                                                         1.595751      -0.940940
                                                         0.821527      -0.164269
                                                         0.376346      -0.061055
                                                         0.192697       0.057332
                                                         0.068098       0.008781
                          1       9    5dxy              2.787486       0.261959
                                                         2.671514       0.322232
                                                         1.595751      -1.629755
                                                         0.821527      -0.284523
                                                         0.376346      -0.105750
                                                         0.192697       0.099302
                                                         0.068098       0.015208
                          1       9    5dxz              2.787486       0.261959
                                                         2.671514       0.322232
                                                         1.595751      -1.629755
                                                         0.821527      -0.284523
                                                         0.376346      -0.105750
                                                         0.192697       0.099302
                                                         0.068098       0.015208
                          1       9    5dy2              2.787486       0.151242
                                                         2.671514       0.186041
                                                         1.595751      -0.940940
                                                         0.821527      -0.164269
                                                         0.376346      -0.061055
                                                         0.192697       0.057332
                                                         0.068098       0.008781
                          1       9    5dyz              2.787486       0.261959
                                                         2.671514       0.322232
                                                         1.595751      -1.629755
                                                         0.821527      -0.284523
                                                         0.376346      -0.105750
                                                         0.192697       0.099302
                                                         0.068098       0.015208
                          1       9    5dz2              2.787486       0.151242
                                                         2.671514       0.186041
                                                         1.595751      -0.940940
                                                         0.821527      -0.164269
                                                         0.376346      -0.061055
                                                         0.192697       0.057332
                                                         0.068098       0.008781

                          1      10    6dx2              2.787486      -0.475809
                                                         2.671514      -1.241759
                                                         1.595751       3.432202
                                                         0.821527      -0.075458
                                                         0.376346       0.035328
                                                         0.192697      -0.041668
                                                         0.068098       0.013519
                          1      10    6dxy              2.787486      -0.824125
                                                         2.671514      -2.150790
                                                         1.595751       5.944748
                                                         0.821527      -0.130696
                                                         0.376346       0.061190
                                                         0.192697      -0.072171
                                                         0.068098       0.023415
                          1      10    6dxz              2.787486      -0.824125
                                                         2.671514      -2.150790
                                                         1.595751       5.944748
                                                         0.821527      -0.130696
                                                         0.376346       0.061190
                                                         0.192697      -0.072171
                                                         0.068098       0.023415
                          1      10    6dy2              2.787486      -0.475809
                                                         2.671514      -1.241759
                                                         1.595751       3.432202
                                                         0.821527      -0.075458
                                                         0.376346       0.035328
                                                         0.192697      -0.041668
                                                         0.068098       0.013519
                          1      10    6dyz              2.787486      -0.824125
                                                         2.671514      -2.150790
                                                         1.595751       5.944748
                                                         0.821527      -0.130696
                                                         0.376346       0.061190
                                                         0.192697      -0.072171
                                                         0.068098       0.023415
                          1      10    6dz2              2.787486      -0.475809
                                                         2.671514      -1.241759
                                                         1.595751       3.432202
                                                         0.821527      -0.075458
                                                         0.376346       0.035328
                                                         0.192697      -0.041668
                                                         0.068098       0.013519

                          1      11    5fx3              2.787486       4.563982
                                                         2.671514      -4.395367
                                                         1.595751      -0.213839
                                                         0.821527      -0.352058
                                                         0.376346      -0.065532
                                                         0.192697      -0.009933
                                                         0.068098      -0.000516
                          1      11    5fx2y             2.787486      10.205374
                                                         2.671514      -9.828341
                                                         1.595751      -0.478159
                                                         0.821527      -0.787225
                                                         0.376346      -0.146534
                                                         0.192697      -0.022211
                                                         0.068098      -0.001154
                          1      11    5fx2z             2.787486      10.205374
                                                         2.671514      -9.828341
                                                         1.595751      -0.478159
                                                         0.821527      -0.787225
                                                         0.376346      -0.146534
                                                         0.192697      -0.022211
                                                         0.068098      -0.001154
                          1      11    5fxy2             2.787486      10.205374
                                                         2.671514      -9.828341
                                                         1.595751      -0.478159
                                                         0.821527      -0.787225
                                                         0.376346      -0.146534
                                                         0.192697      -0.022211
                                                         0.068098      -0.001154
                          1      11    5fxyz             2.787486      17.676226
                                                         2.671514     -17.023185
                                                         1.595751      -0.828196
                                                         0.821527      -1.363513
                                                         0.376346      -0.253804
                                                         0.192697      -0.038471
                                                         0.068098      -0.001999
                          1      11    5fxz2             2.787486      10.205374
                                                         2.671514      -9.828341
                                                         1.595751      -0.478159
                                                         0.821527      -0.787225
                                                         0.376346      -0.146534
                                                         0.192697      -0.022211
                                                         0.068098      -0.001154
                          1      11    5fy3              2.787486       4.563982
                                                         2.671514      -4.395367
                                                         1.595751      -0.213839
                                                         0.821527      -0.352058
                                                         0.376346      -0.065532
                                                         0.192697      -0.009933
                                                         0.068098      -0.000516
                          1      11    5fy2z             2.787486      10.205374
                                                         2.671514      -9.828341
                                                         1.595751      -0.478159
                                                         0.821527      -0.787225
                                                         0.376346      -0.146534
                                                         0.192697      -0.022211
                                                         0.068098      -0.001154
                          1      11    5fyz2             2.787486      10.205374
                                                         2.671514      -9.828341
                                                         1.595751      -0.478159
                                                         0.821527      -0.787225
                                                         0.376346      -0.146534
                                                         0.192697      -0.022211
                                                         0.068098      -0.001154
                          1      11    5fz3              2.787486       4.563982
                                                         2.671514      -4.395367
                                                         1.595751      -0.213839
                                                         0.821527      -0.352058
                                                         0.376346      -0.065532
                                                         0.192697      -0.009933
                                                         0.068098      -0.000516

     Auxiliary Fit Basis Set                                              cFIT11

       Number of orbital shell sets:                                           7
       Number of orbital shells:                                               8
       Number of primitive Cartesian functions:                               11
       Number of Cartesian basis functions:                                   31
       Number of spherical basis functions:                                   26
       Norm type:                                                              2

       Normalised Cartesian orbitals:

                        Set   Shell   Orbital            Exponent    Coefficient

                          1       1    1s                0.071911       0.098971

                          2       1    1s                0.328001      -0.405281
                                                         1.092914       1.154512
                                                         2.964928       0.069224

                          2       2    2s                0.328001       0.229745
                                                         1.092914       0.505016
                                                         2.964928      -1.079161

                          3       1    1px               0.069747       0.051091
                          3       1    1py               0.069747       0.051091
                          3       1    1pz               0.069747       0.051091

                          4       1    1px               0.291475       0.053640
                                                         0.983551       1.224976
                          4       1    1py               0.291475       0.053640
                                                         0.983551       1.224976
                          4       1    1pz               0.291475       0.053640
                                                         0.983551       1.224976

                          5       1    1dx2              0.130156       0.046421
                          5       1    1dxy              0.130156       0.080404
                          5       1    1dxz              0.130156       0.080404
                          5       1    1dy2              0.130156       0.046421
                          5       1    1dyz              0.130156       0.080404
                          5       1    1dz2              0.130156       0.046421

                          6       1    1dx2              0.454365       0.243055
                                                         1.396097       1.573929
                          6       1    1dxy              0.454365       0.420984
                                                         1.396097       2.726125
                          6       1    1dxz              0.454365       0.420984
                                                         1.396097       2.726125
                          6       1    1dy2              0.454365       0.243055
                                                         1.396097       1.573929
                          6       1    1dyz              0.454365       0.420984
                                                         1.396097       2.726125
                          6       1    1dz2              0.454365       0.243055
                                                         1.396097       1.573929

                          7       1    1fx3              0.540981       0.369500
                          7       1    1fx2y             0.540981       0.826228
                          7       1    1fx2z             0.540981       0.826228
                          7       1    1fxy2             0.540981       0.826228
                          7       1    1fxyz             0.540981       1.431068
                          7       1    1fxz2             0.540981       0.826228
                          7       1    1fy3              0.540981       0.369500
                          7       1    1fy2z             0.540981       0.826228
                          7       1    1fyz2             0.540981       0.826228
                          7       1    1fz3              0.540981       0.369500

     GTH Potential information for                                   GTH-PBE-q16

       Description:                       Goedecker-Teter-Hutter pseudopotential
                                           Goedecker et al., PRB 54, 1703 (1996)
                                          Hartwigsen et al., PRB 58, 3641 (1998)
                                                      Krack, TCA 114, 145 (2005)

       Gaussian exponent of the core charge distribution:               2.704164
       Electronic configuration (s p d ...):                           3   6   7

       Parameters of the local part of the GTH pseudopotential:

                          rloc        C1          C2          C3          C4
                        0.430000   26.832391   -5.050497

       Parameters of the non-local part of the GTH pseudopotential:

                   l      r(l)      h(i,j,l)

                   0    0.341355   -0.555041    3.715490
                                    3.715490   -4.796677
                   1    0.428271    0.106775   -1.277572
                                   -1.277572    1.511643
                   2    0.438148    1.509217   -2.943054
                                   -2.943054    3.337110

  4. Atomic kind: C                                     Number of atoms:      96

     Orbital Basis Set                                           DZVP-MOLOPT-GTH

       Number of orbital shell sets:                                           1
       Number of orbital shells:                                               5
       Number of primitive Cartesian functions:                                7
       Number of Cartesian basis functions:                                   14
       Number of spherical basis functions:                                   13
       Norm type:                                                              2

       Normalised Cartesian orbitals:

                        Set   Shell   Orbital            Exponent    Coefficient

                          1       1    2s                6.132625      -0.263661
                                                         2.625196      -0.231112
                                                         1.045457       0.042712
                                                         0.478316       0.306085
                                                         0.178617       0.065483
                                                         0.075145       0.000568
                                                         0.030287       0.000417

                          1       2    3s                6.132625       0.131937
                                                         2.625196       0.414269
                                                         1.045457      -0.593590
                                                         0.478316       0.644922
                                                         0.178617       0.069203
                                                         0.075145      -0.145101
                                                         0.030287       0.008247

                          1       3    3px               6.132625       0.562677
                                                         2.625196       0.633910
                                                         1.045457       0.379157
                                                         0.478316       0.235193
                                                         0.178617       0.052379
                                                         0.075145       0.003677
                                                         0.030287       0.000105
                          1       3    3py               6.132625       0.562677
                                                         2.625196       0.633910
                                                         1.045457       0.379157
                                                         0.478316       0.235193
                                                         0.178617       0.052379
                                                         0.075145       0.003677
                                                         0.030287       0.000105
                          1       3    3pz               6.132625       0.562677
                                                         2.625196       0.633910
                                                         1.045457       0.379157
                                                         0.478316       0.235193
                                                         0.178617       0.052379
                                                         0.075145       0.003677
                                                         0.030287       0.000105

                          1       4    4px               6.132625      -0.472364
                                                         2.625196      -0.221326
                                                         1.045457      -0.481781
                                                         0.478316       0.135466
                                                         0.178617       0.072281
                                                         0.075145       0.024920
                                                         0.030287       0.002706
                          1       4    4py               6.132625      -0.472364
                                                         2.625196      -0.221326
                                                         1.045457      -0.481781
                                                         0.478316       0.135466
                                                         0.178617       0.072281
                                                         0.075145       0.024920
                                                         0.030287       0.002706
                          1       4    4pz               6.132625      -0.472364
                                                         2.625196      -0.221326
                                                         1.045457      -0.481781
                                                         0.478316       0.135466
                                                         0.178617       0.072281
                                                         0.075145       0.024920
                                                         0.030287       0.002706

                          1       5    4dx2              6.132625       0.874783
                                                         2.625196       0.375772
                                                         1.045457       0.653959
                                                         0.478316       0.191007
                                                         0.178617       0.018656
                                                         0.075145       0.003649
                                                         0.030287      -0.000011
                          1       5    4dxy              6.132625       1.515169
                                                         2.625196       0.650856
                                                         1.045457       1.132690
                                                         0.478316       0.330834
                                                         0.178617       0.032314
                                                         0.075145       0.006321
                                                         0.030287      -0.000019
                          1       5    4dxz              6.132625       1.515169
                                                         2.625196       0.650856
                                                         1.045457       1.132690
                                                         0.478316       0.330834
                                                         0.178617       0.032314
                                                         0.075145       0.006321
                                                         0.030287      -0.000019
                          1       5    4dy2              6.132625       0.874783
                                                         2.625196       0.375772
                                                         1.045457       0.653959
                                                         0.478316       0.191007
                                                         0.178617       0.018656
                                                         0.075145       0.003649
                                                         0.030287      -0.000011
                          1       5    4dyz              6.132625       1.515169
                                                         2.625196       0.650856
                                                         1.045457       1.132690
                                                         0.478316       0.330834
                                                         0.178617       0.032314
                                                         0.075145       0.006321
                                                         0.030287      -0.000019
                          1       5    4dz2              6.132625       0.874783
                                                         2.625196       0.375772
                                                         1.045457       0.653959
                                                         0.478316       0.191007
                                                         0.178617       0.018656
                                                         0.075145       0.003649
                                                         0.030287      -0.000011

     Auxiliary Fit Basis Set                                               pFIT3

       Number of orbital shell sets:                                           7
       Number of orbital shells:                                               7
       Number of primitive Cartesian functions:                                7
       Number of Cartesian basis functions:                                   18
       Number of spherical basis functions:                                   17
       Norm type:                                                              2

       Normalised Cartesian orbitals:

                        Set   Shell   Orbital            Exponent    Coefficient

                          1       1    1s                0.143490       0.166160

                          2       1    1s                0.450840       0.392127

                          3       1    1s                4.420950       2.172935

                          4       1    1px               0.152150       0.135450
                          4       1    1py               0.152150       0.135450
                          4       1    1pz               0.152150       0.135450

                          5       1    1px               0.670820       0.865362
                          5       1    1py               0.670820       0.865362
                          5       1    1pz               0.670820       0.865362

                          6       1    1px               3.053900       5.754513
                          6       1    1py               3.053900       5.754513
                          6       1    1pz               3.053900       5.754513

                          7       1    1dx2              0.800000       1.113825
                          7       1    1dxy              0.800000       1.929201
                          7       1    1dxz              0.800000       1.929201
                          7       1    1dy2              0.800000       1.113825
                          7       1    1dyz              0.800000       1.929201
                          7       1    1dz2              0.800000       1.113825

     GTH Potential information for                                    GTH-PBE-q4

       Description:                       Goedecker-Teter-Hutter pseudopotential
                                           Goedecker et al., PRB 54, 1703 (1996)
                                          Hartwigsen et al., PRB 58, 3641 (1998)
                                                      Krack, TCA 114, 145 (2005)

       Gaussian exponent of the core charge distribution:               4.364419
       Electronic configuration (s p d ...):                               2   2

       Parameters of the local part of the GTH pseudopotential:

                          rloc        C1          C2          C3          C4
                        0.338471   -8.803674    1.339211

       Parameters of the non-local part of the GTH pseudopotential:

                   l      r(l)      h(i,j,l)

                   0    0.302576    9.622487
                   1    0.291507

  5. Atomic kind: Zn                                    Number of atoms:       2

     Orbital Basis Set                                        TZVP-MOLOPT-SR-GTH

       Number of orbital shell sets:                                           1
       Number of orbital shells:                                              10
       Number of primitive Cartesian functions:                                6
       Number of Cartesian basis functions:                                   40
       Number of spherical basis functions:                                   34
       Norm type:                                                              2

       Normalised Cartesian orbitals:

                        Set   Shell   Orbital            Exponent    Coefficient

                          1       1    2s                6.400813       0.067909
                                                         3.167793      -0.175995
                                                         1.341704       0.252541
                                                         0.545418       0.117811
                                                         0.222222      -0.158670
                                                         0.079830      -0.065532

                          1       2    3s                6.400813      -0.203553
                                                         3.167793       0.423977
                                                         1.341704      -0.544832
                                                         0.545418       0.061239
                                                         0.222222       0.318181
                                                         0.079830      -0.195033

                          1       3    4s                6.400813      -0.014853
                                                         3.167793       0.049318
                                                         1.341704      -0.241840
                                                         0.545418       0.452595
                                                         0.222222       0.015209
                                                         0.079830       0.023555

                          1       4    3px               6.400813       0.080507
                                                         3.167793      -0.109840
                                                         1.341704       0.361646
                                                         0.545418      -0.097117
                                                         0.222222      -0.131461
                                                         0.079830      -0.025372
                          1       4    3py               6.400813       0.080507
                                                         3.167793      -0.109840
                                                         1.341704       0.361646
                                                         0.545418      -0.097117
                                                         0.222222      -0.131461
                                                         0.079830      -0.025372
                          1       4    3pz               6.400813       0.080507
                                                         3.167793      -0.109840
                                                         1.341704       0.361646
                                                         0.545418      -0.097117
                                                         0.222222      -0.131461
                                                         0.079830      -0.025372

                          1       5    4px               6.400813      -0.170347
                                                         3.167793       0.232027
                                                         1.341704      -0.941864
                                                         0.545418       0.386804
                                                         0.222222       0.139326
                                                         0.079830      -0.079677
                          1       5    4py               6.400813      -0.170347
                                                         3.167793       0.232027
                                                         1.341704      -0.941864
                                                         0.545418       0.386804
                                                         0.222222       0.139326
                                                         0.079830      -0.079677
                          1       5    4pz               6.400813      -0.170347
                                                         3.167793       0.232027
                                                         1.341704      -0.941864
                                                         0.545418       0.386804
                                                         0.222222       0.139326
                                                         0.079830      -0.079677

                          1       6    5px               6.400813      -0.550416
                                                         3.167793       0.809698
                                                         1.341704      -1.826769
                                                         0.545418       1.530739
                                                         0.222222      -0.281145
                                                         0.079830       0.041784
                          1       6    5py               6.400813      -0.550416
                                                         3.167793       0.809698
                                                         1.341704      -1.826769
                                                         0.545418       1.530739
                                                         0.222222      -0.281145
                                                         0.079830       0.041784
                          1       6    5pz               6.400813      -0.550416
                                                         3.167793       0.809698
                                                         1.341704      -1.826769
                                                         0.545418       1.530739
                                                         0.222222      -0.281145
                                                         0.079830       0.041784

                          1       7    4dx2              6.400813      12.519980
                                                         3.167793       4.593751
                                                         1.341704       0.972279
[...]
 flops   156 x    64 x     5            577674240     100.0%      0.0%      0.0%
 flops    34 x    32 x    35            587955200     100.0%      0.0%      0.0%
 flops   259 x    64 x    32            606814208     100.0%      0.0%      0.0%
 flops    13 x     6 x    13            631308288     100.0%      0.0%      0.0%
 flops   156 x    32 x    32            664535040     100.0%      0.0%      0.0%
 flops   203 x    32 x    32            670179328     100.0%      0.0%      0.0%
 flops   195 x    32 x     5            673420800     100.0%      0.0%      0.0%
 flops   156 x    96 x    13            697761792     100.0%      0.0%      0.0%
 flops     5 x    13 x    32            698663680     100.0%      0.0%      0.0%
 flops    13 x     5 x    32            707083520     100.0%      0.0%      0.0%
 flops    32 x    64 x     5            708730880     100.0%      0.0%      0.0%
 flops    13 x     5 x    13            775290880     100.0%      0.0%      0.0%
 flops   195 x     3 x    32            787438080     100.0%      0.0%      0.0%
 flops   246 x    32 x    32            812138496     100.0%      0.0%      0.0%
 flops    32 x    64 x    32            824705024     100.0%      0.0%      0.0%
 flops   150 x    64 x    13            830668800     100.0%      0.0%      0.0%
 flops   156 x    32 x    13            830668800     100.0%      0.0%      0.0%
 flops   151 x    64 x    13            836206592     100.0%      0.0%      0.0%
 flops   203 x    32 x    13            951222272     100.0%      0.0%      0.0%
 flops     5 x     3 x     5            992666400     100.0%      0.0%      0.0%
 flops   160 x    92 x    13           1077739520     100.0%      0.0%      0.0%
 flops    65 x    64 x    32           1079869440     100.0%      0.0%      0.0%
 flops   163 x    32 x    32           1098280960     100.0%      0.0%      0.0%
 flops   160 x    32 x    13           1124597760     100.0%      0.0%      0.0%
 flops   128 x    96 x    13           1145044992     100.0%      0.0%      0.0%
 flops   246 x    32 x    13           1152712704     100.0%      0.0%      0.0%
 flops    35 x    32 x    35           1210496000     100.0%      0.0%      0.0%
 flops   128 x    32 x    13           1226833920     100.0%      0.0%      0.0%
 flops    75 x    64 x    32           1246003200     100.0%      0.0%      0.0%
 flops    34 x     3 x    13           1247840256     100.0%      0.0%      0.0%
 flops    34 x    32 x     5           1259904000     100.0%      0.0%      0.0%
 flops   160 x    96 x     5           1419264000     100.0%      0.0%      0.0%
 flops   160 x    32 x    32           1449000960     100.0%      0.0%      0.0%
 flops    13 x    32 x    32           1526726656     100.0%      0.0%      0.0%
 flops   163 x    32 x    13           1527578624     100.0%      0.0%      0.0%
 flops    94 x    64 x    32           1561657344     100.0%      0.0%      0.0%
 flops    32 x     3 x    13           1679867904     100.0%      0.0%      0.0%
 flops   104 x    64 x    32           1727791104     100.0%      0.0%      0.0%
 flops   123 x    64 x    32           2043445248     100.0%      0.0%      0.0%
 flops    13 x     3 x    35           2569082880     100.0%      0.0%      0.0%
 flops    35 x     3 x    13           2569082880     100.0%      0.0%      0.0%
 flops     5 x    32 x    35           2593920000     100.0%      0.0%      0.0%
 flops    35 x    32 x     5           2593920000     100.0%      0.0%      0.0%
 flops   195 x    32 x    32           2680504320     100.0%      0.0%      0.0%
 flops   203 x    64 x    32           2896904192     100.0%      0.0%      0.0%
 flops   156 x    64 x    13           3189768192     100.0%      0.0%      0.0%
 flops    17 x    17 x    32           3359465472     100.0%      0.0%      0.0%
 flops   246 x    64 x    32           3510534144     100.0%      0.0%      0.0%
 flops   128 x    64 x    32           3653238784     100.0%      0.0%      0.0%
 flops   195 x    32 x    13           3654942720     100.0%      0.0%      0.0%
 flops    32 x    64 x    13           3898605568     100.0%      0.0%      0.0%
 flops    13 x    13 x    32           3929063424     100.0%      0.0%      0.0%
 flops   128 x    64 x     5           4266393600     100.0%      0.0%      0.0%
 flops    32 x    32 x     5           4355225600     100.0%      0.0%      0.0%
 flops   156 x    64 x    32           4817879040     100.0%      0.0%      0.0%
 flops   163 x    64 x    32           5034065920     100.0%      0.0%      0.0%
 flops    13 x     3 x     5           5505177600     100.0%      0.0%      0.0%
 flops     5 x     3 x    13           5505976320     100.0%      0.0%      0.0%
 flops     5 x    32 x     5           5580904000     100.0%      0.0%      0.0%
 flops   160 x    64 x     5           6488064000     100.0%      0.0%      0.0%
 flops    34 x    32 x    13           6988267520     100.0%      0.0%      0.0%
 flops   160 x    96 x    13           7872184320     100.0%      0.0%      0.0%
 flops   195 x    64 x    32          12958433280     100.0%      0.0%      0.0%
 flops    13 x    32 x    35          14387609600     100.0%      0.0%      0.0%
 flops    35 x    32 x    13          14387609600     100.0%      0.0%      0.0%
 flops   128 x    64 x    13          23664263168     100.0%      0.0%      0.0%
 flops    32 x    32 x    13          24141365248     100.0%      0.0%      0.0%
 flops   160 x    64 x    32          25116016640     100.0%      0.0%      0.0%
 flops    13 x     3 x    13          30535385088     100.0%      0.0%      0.0%
 flops    13 x    32 x     5          30830592000     100.0%      0.0%      0.0%
 flops     5 x    32 x    13          30955192320     100.0%      0.0%      0.0%
 flops   160 x    64 x    13          35987128320     100.0%      0.0%      0.0%
 flops    13 x    32 x    13         171007016960     100.0%      0.0%      0.0%
 flops inhomo. stacks                 31008702760     100.0%      0.0%      0.0%
 flops total                       607.869759E+09     100.0%      0.0%      0.0%
 flops max/rank                     10.231161E+09     100.0%      0.0%      0.0%
 matmuls inhomo. stacks                   1227500     100.0%      0.0%      0.0%
 matmuls total                          113199927     100.0%      0.0%      0.0%
 number of processed stacks              15263601     100.0%      0.0%      0.0%
 average stack size                                     7.4       0.0       0.0
 marketing flops                   784.412377E+09
 -------------------------------------------------------------------------------
 # multiplications                          12014
 max memory usage/rank             731.226112E+06
 # max total images/rank                       15
 # max 3D layers                                1
 # MPI messages exchanged              3219271440
 MPI messages size (bytes):
  total size                         2.347351E+12
  min size                           0.000000E+00
  max size                          72.520000E+03
  average size                     729.155884E+00
 MPI breakdown and total messages size (bytes):
             size <=      128          2993694186               1243786800
       128 < size <=     8192           128510397             503841873416
      8192 < size <=    32768            92123198            1597769686760
     32768 < size <=   131072             4943659             247364777680
    131072 < size <=  4194304                   0                        0
   4194304 < size <= 16777216                   0                        0
  16777216 < size                               0                        0
 -------------------------------------------------------------------------------

 *** WARNING in dbcsr/mm/dbcsr_mm.F:267 :: Using a non-square number of ***
 *** MPI ranks might lead to poor performance.                          ***
 *** Used ranks: 420                                                    ***
 *** Suggested: 400 841                                                 ***

 -------------------------------------------------------------------------------

 MEMORY| Estimated peak process memory [MiB]                                 704

 -------------------------------------------------------------------------------
 ----                             MULTIGRID INFO                            ----
 -------------------------------------------------------------------------------
 count for grid        1:       90307005          cutoff [a.u.]          350.00
 count for grid        2:      112179107          cutoff [a.u.]          116.67
 count for grid        3:       59014729          cutoff [a.u.]           38.89
 count for grid        4:       31275325          cutoff [a.u.]           12.96
 count for grid        5:       15052909          cutoff [a.u.]            4.32
 total gridlevel count  :      307829075

 -------------------------------------------------------------------------------
 -                                                                             -
 -                         MESSAGE PASSING PERFORMANCE                         -
 -                                                                             -
 -------------------------------------------------------------------------------

 ROUTINE             CALLS      AVE VOLUME [Bytes]
 MP_Group              546
 MP_Bcast             6193                 844370.
 MP_Allreduce        38585                   2123.
 MP_Sync            101962
 MP_Alltoall         39744
 MP_ISendRecv        30168                  14543.
 MP_Wait           3107897
 MP_comm_split         249
 MP_ISend         15394334                    737.
 MP_IRecv         15394205                    705.
 MP_Recv            101293                   2998.
 MP_Memory         4693126
 -------------------------------------------------------------------------------


 -------------------------------------------------------------------------------
 -                                                                             -
 -                           R E F E R E N C E S                               -
 -                                                                             -
 -------------------------------------------------------------------------------
 
 CP2K version 6.0 (Development Version), the CP2K developers group (2017).
 CP2K is freely available from https://www.cp2k.org/ .

 Holmberg, N; Laasonen, K. 
 Journal of Chemical Theory and Computation, 13 (2), (2017). 
 Efficient Constrained Density Functional Theory Implementation for Simulation of
 Condensed Phase Electron Transfer Reactions.
 http://dx.doi.org/10.1021/acs.jctc.6b01085


 Schuett, Ole; Messmer, Peter; Hutter, Juerg; VandeVondele, Joost. 
 Electronic Structure Calculations on Graphics Processing Units, John Wiley & Sons, Ltd, 173-190 (2016). 
 GPU-Accelerated Sparse Matrix-Matrix Multiplication for Linear Scaling Density Functional Theory.
 http://dx.doi.org/10.1002/9781118670712.ch8


 Borstnik, U; VandeVondele, J; Weber, V; Hutter, J. 
 PARALLEL COMPUTING, 40 (5-6), 47-58 (2014). 
 Sparse matrix multiplication: The distributed block-compressed sparse
 row library.
 http://dx.doi.org/10.1016/j.parco.2014.03.012


 Hutter, J; Iannuzzi, M; Schiffmann, F; VandeVondele, J. 
 WILEY INTERDISCIPLINARY REVIEWS-COMPUTATIONAL MOLECULAR SCIENCE, 4 (1), 15-25 (2014). 
 CP2K: atomistic simulations of condensed matter systems.
 http://dx.doi.org/10.1002/wcms.1159


 Grimme, S; Ehrlich, S; Goerigk, L. 
 JOURNAL OF COMPUTATIONAL CHEMISTRY, 32, 1456 (2011). 
 Effect of the damping function in dispersion corrected density functional theory.
 http://dx.doi.org/10.1002/jcc.21759


 Guidon, M; Hutter, J; VandeVondele, J. 
 JOURNAL OF CHEMICAL THEORY AND COMPUTATION, 6 (8), 2348-2364 (2010). 
 Auxiliary Density Matrix Methods for Hartree-Fock Exchange Calculations.
 http://dx.doi.org/10.1021/ct1002225


 Grimme, S; Antony, J; Ehrlich, S; Krieg, H. 
 JOURNAL OF CHEMICAL PHYSICS, 132 (15), 154104 (2010). 
 A consistent and accurate ab initio parametrization of density
 functional dispersion correction (DFT-D) for the 94 elements H-Pu.
 http://dx.doi.org/10.1063/1.3382344


 Guidon, M; Hutter, J; VandeVondele, J. 
 JOURNAL OF CHEMICAL THEORY AND COMPUTATION, 5 (11), 3010-3021 (2009). 
 Robust Periodic Hartree-Fock Exchange for Large-Scale Simulations Using
 Gaussian Basis Sets.
 http://dx.doi.org/10.1021/ct900494g


 Guidon, M; Schiffmann, F; Hutter, J; VandeVondele, J. 
 JOURNAL OF CHEMICAL PHYSICS, 128 (21), 214104 (2008). 
 Ab initio molecular dynamics using hybrid density functionals.
 http://dx.doi.org/10.1063/1.2931945


 Weber, V; VandeVondele, J; Hutter, J; Niklasson, AMN. 
 JOURNAL OF CHEMICAL PHYSICS, 128 (8), 084113 (2008). 
 Direct energy functional minimization under orthogonality constraints.
 http://dx.doi.org/10.1063/1.2841077


 VandeVondele, J; Hutter, J. 
 JOURNAL OF CHEMICAL PHYSICS, 127 (11), 114105 (2007). 
 Gaussian basis sets for accurate calculations on molecular systems in
 gas and condensed phases.
 http://dx.doi.org/10.1063/1.2770708


 Krack, M. 
 THEORETICAL CHEMISTRY ACCOUNTS, 114 (1-3), 145-152 (2005). 
 Pseudopotentials for H to Kr optimized for gradient-corrected
 exchange-correlation functionals.
 http://dx.doi.org/10.1007/s00214-005-0655-y


 VandeVondele, J; Krack, M; Mohamed, F; Parrinello, M; Chassaing, T;
 Hutter, J. COMPUTER PHYSICS COMMUNICATIONS, 167 (2), 103-128 (2005). 
 QUICKSTEP: Fast and accurate density functional calculations using a
 mixed Gaussian and plane waves approach.
 http://dx.doi.org/10.1016/j.cpc.2004.12.014


 Frigo, M; Johnson, SG. 
 PROCEEDINGS OF THE IEEE, 93 (2), 216-231 (2005). 
 The design and implementation of FFTW3.
 http://dx.doi.org/10.1109/JPROC.2004.840301


 Heyd, J; Scuseria, GE. 
 JOURNAL OF CHEMICAL PHYSICS, 120 (16), 7274-7280 (2004). 
 Assessment and validation of a screened Coulomb hybrid density
 functional.
 http://dx.doi.org/10.1063/1.1668634


 VandeVondele, J; Hutter, J. 
 JOURNAL OF CHEMICAL PHYSICS, 118 (10), 4365-4369 (2003). 
 An efficient orbital transformation method for electronic structure
 calculations.
 http://dx.doi.org/10.1063/1.1543154


 Hartwigsen, C; Goedecker, S; Hutter, J. 
 PHYSICAL REVIEW B, 58 (7), 3641-3662 (1998). 
 Relativistic separable dual-space Gaussian pseudopotentials from H to Rn.
 http://dx.doi.org/10.1103/PhysRevB.58.3641


 Lippert, G; Hutter, J; Parrinello, M. 
 MOLECULAR PHYSICS, 92 (3), 477-487 (1997). 
 A hybrid Gaussian and plane wave density functional scheme.
 http://dx.doi.org/10.1080/002689797170220


 Perdew, JP; Burke, K; Ernzerhof, M. 
 PHYSICAL REVIEW LETTERS, 77 (18), 3865-3868 (1996). 
 Generalized gradient approximation made simple.
 http://dx.doi.org/10.1103/PhysRevLett.77.3865


 Goedecker, S; Teter, M; Hutter, J. 
 PHYSICAL REVIEW B, 54 (3), 1703-1710 (1996). 
 Separable dual-space Gaussian pseudopotentials.
 http://dx.doi.org/10.1103/PhysRevB.54.1703


 Becke, AD. JOURNAL OF CHEMICAL PHYSICS, 88 (4), 2547-2553 (1988). 
 A multicenter numerical integration scheme for polyatomic molecules.
 http://dx.doi.org/10.1063/1.454033


 -------------------------------------------------------------------------------
 -                                                                             -
 -                                T I M I N G                                  -
 -                                                                             -
 -------------------------------------------------------------------------------
 SUBROUTINE                       CALLS  ASD         SELF TIME        TOTAL TIME
                                MAXIMUM       AVERAGE  MAXIMUM  AVERAGE  MAXIMUM
 CP2K                                 1  1.0    0.154    0.184  503.931  503.932
 qs_energies                          1  2.0    0.000    0.000  500.772  500.773
 mp_sum_l                         20226  9.1  159.774  283.149  159.774  283.149
 qs_energies_init_hamiltonians        1  3.0    0.000    0.000  281.130  281.130
 build_core_hamiltonian_matrix        1  4.0    0.000    0.000  272.331  272.332
 dump_info_core_hamiltonian           1  5.0    0.000    0.000  149.722  272.051
 cp_dbcsr_write_matrix_dist           1  6.0    0.000    0.000  149.722  272.051
 build_core_ppnl                      1  5.0  116.006  257.709  116.006  257.709
 scf_post_calculation_gpw             1  3.0    0.000    0.000  168.548  168.548
 ot_eigensolver                       4  6.0    0.016    0.018  150.025  150.033
 make_lumo                            1  4.0    0.000    0.000  148.899  148.899
 dbcsr_multiply_generic           12014  7.8    0.935    1.009  134.399  137.156
 multiply_cannon                  12014  8.8   17.908   18.340   91.526   97.457
 ot_mini                            909  6.0    0.005    0.006   64.722   64.731
 qs_ot_get_derivative               456  7.0    0.005    0.005   64.013   64.207
 cdft_scf_loop                        1  3.0    0.000    0.000   47.321   47.322
 scf_env_do_scf                       1  4.0    0.000    0.000   47.321   47.321
 init_scf_loop                        1  5.0    0.000    0.000   45.224   45.226
 qs_ks_update_qs_env                  2  6.0    0.000    0.000   42.709   42.709
 rebuild_ks_matrix                    1  7.0    0.000    0.000   42.709   42.709
 qs_ks_build_kohn_sham_matrix         1  8.0    0.000    0.000   42.709   42.709
 qs_ot_get_p                        934  6.0    0.019    0.030   35.927   36.544
 qs_ot_get_derivative_taylor        350  8.0    0.014    0.015   35.437   35.547
 hfx_ks_matrix                        1  9.0    0.000    0.000   34.522   34.522
 integrate_four_center                1 10.0    0.055    0.445   34.521   34.522
 make_m2s                         24028  8.8    1.771    1.859   30.081   30.555
 mp_waitall_1                   3106244 10.9   20.559   27.292   20.559   27.292
 make_images                      24028  9.8    3.040    3.108   23.372   23.742
 integrate_four_center_main           1 11.0    0.001    0.002   20.383   21.429
 integrate_four_center_bin           65 12.0   20.382   21.428   20.382   21.428
 qs_ot_get_orbitals                 934  6.0    0.005    0.006   19.894   20.099
 multiply_cannon_metrocomm1      360420  9.8    1.174    1.233   13.896   20.071
 multiply_cannon_metrocomm2     5226090  9.8   11.630   11.956   18.871   20.034
 mp_allgather_i34                 12014  9.8   17.064   18.652   17.064   18.652
 multiply_cannon_metrocomm3      360420  9.8    0.981    1.051    7.467   18.460
 make_images_sizes                24028 10.8    0.029    0.035   14.589   14.907
 mp_alltoall_i44                  24028 11.8   14.560   14.879   14.560   14.879
 build_core_ppl                       1  5.0    6.399   14.462    6.399   14.462
 mp_sync                         101962  6.4   13.191   13.938   13.191   13.938
 multiply_cannon_metrocomm4     2438842  9.8    5.644    5.934   10.620   12.370
 pw_to_cube                          15  5.2    0.143    9.841   11.971   11.974
 qs_ot_p2m_diag                     231  7.0    0.006    0.007   11.395   11.613
 qs_ot_p2m_taylor                   703  7.0    0.009    0.010   10.916   11.512
 write_available_results              1  4.0    0.000    0.000   11.340   11.341
 qs_ot_get_derivative_diag          106  8.0    0.003    0.004   11.292   11.324
 -------------------------------------------------------------------------------

 The number of warnings for this run is : 1
 
 -------------------------------------------------------------------------------
  **** **** ******  **  PROGRAM ENDED AT                 2019-09-26 01:06:24.547
 ***** ** ***  *** **   PROGRAM RAN ON                              i25r05c03s07
 **    ****   ******    PROGRAM RAN BY                                   di52dem
 ***** **    ** ** **   PROGRAM PROCESS ID                                  9470
  **** **  *******  **  PROGRAM STOPPED IN   /gpfs/work/pr27sa/di52dem/CHOLE/DOS
