 DBCSR| Multiplication driver                                               BLAS
 DBCSR| Multrec recursion limit                                              512
 DBCSR| Multiplication stack size                                           1000
 DBCSR| Maximum elements for images                                    UNLIMITED
 DBCSR| Multiplicative factor virtual images                                   1
 DBCSR| Multiplication size stacks                                             3
 DBCSR| Number of 3D layers                                               SINGLE
 DBCSR| Use MPI memory allocation                                              T
 DBCSR| Use RMA algorithm                                                      F
 DBCSR| Use Communication thread                                               T
 DBCSR| Communication thread load                                             87


  **** **** ******  **  PROGRAM STARTED AT               2019-05-16 01:18:59.194
 ***** ** ***  *** **   PROGRAM STARTED ON                          i21r02c03s11
 **    ****   ******    PROGRAM STARTED BY                               di52dem
 ***** **    ** ** **   PROGRAM PROCESS ID                                 14540
  **** **  *******  **  PROGRAM STARTED IN      /gpfs/work/pr27sa/di52dem/TdPBE0

 CP2K| version string:                    CP2K version 6.0 (Development Version)
 CP2K| source code revision number:                                             
 CP2K| cp2kflags: omp libint fftw3 parallel mpi3 scalapack                      
 CP2K| is freely available from                            https://www.cp2k.org/
 CP2K| Program compiled at                           Mo 5. Nov 12:30:51 CET 2018
 CP2K| Program compiled on                                               login10
 CP2K| Program compiled for                                                 thin
 CP2K| Data directory path      /lrz/noarch/src/applications/cp2k/cp2k/cp2k/data
 CP2K| Input file name                                                   OPT.inp

 GLOBAL| Force Environment number                                              1
 GLOBAL| Basis set file name            /home/hpc/pr27sa/di52dem/data/BASIS_MOLO
 GLOBAL| Potential file name            /home/hpc/pr27sa/di52dem/data/GTH_POTENT
 GLOBAL| MM Potential file name                                     MM_POTENTIAL
 GLOBAL| Coordinate file name                                           TCPP.xyz
 GLOBAL| Method name                                                        CP2K
 GLOBAL| Project name                                                       TCPP
 GLOBAL| Preferred FFT library                                             FFTW3
 GLOBAL| Preferred diagonalization lib.                                       SL
 GLOBAL| Run type                                                         ENERGY
 GLOBAL| All-to-all communication in single precision                          F
 GLOBAL| FFTs using library dependent lengths                                  F
 GLOBAL| Global print level                                               MEDIUM
 GLOBAL| Total number of message passing processes                           324
 GLOBAL| Number of threads for this process                                    1
 GLOBAL| This output is from process                                           0
 GLOBAL| CPU model name :  Intel(R) Xeon(R) CPU E5-2697 v3 @ 2.60GHz

 MEMORY| system memory details [Kb]
 MEMORY|                        rank 0           min           max       average
 MEMORY| MemTotal             65847228      65847228      65847228      65847228
 MEMORY| MemFree              59704908      59274836      59747556      59383641
 MEMORY| Buffers                     0             0             0             0
 MEMORY| Cached                2760080       2760080       2962644       2873915
 MEMORY| Slab                   206448        206448        252612        240882
 MEMORY| SReclaimable            34156         34156         50056         46365
 MEMORY| MemLikelyFree        62499144      62211148      62700592      62303922


 *** Fundamental physical constants (SI units) ***

 *** Literature: B. J. Mohr and B. N. Taylor,
 ***             CODATA recommended values of the fundamental physical
 ***             constants: 2006, Web Version 5.1
 ***             http://physics.nist.gov/constants

 Speed of light in vacuum [m/s]                             2.99792458000000E+08
 Magnetic constant or permeability of vacuum [N/A**2]       1.25663706143592E-06
 Electric constant or permittivity of vacuum [F/m]          8.85418781762039E-12
 Planck constant (h) [J*s]                                  6.62606896000000E-34
 Planck constant (h-bar) [J*s]                              1.05457162825177E-34
 Elementary charge [C]                                      1.60217648700000E-19
 Electron mass [kg]                                         9.10938215000000E-31
 Electron g factor [ ]                                     -2.00231930436220E+00
 Proton mass [kg]                                           1.67262163700000E-27
 Fine-structure constant                                    7.29735253760000E-03
 Rydberg constant [1/m]                                     1.09737315685270E+07
 Avogadro constant [1/mol]                                  6.02214179000000E+23
 Boltzmann constant [J/K]                                   1.38065040000000E-23
 Atomic mass unit [kg]                                      1.66053878200000E-27
 Bohr radius [m]                                            5.29177208590000E-11

 *** Conversion factors ***

 [u] -> [a.u.]                                              1.82288848426455E+03
 [Angstrom] -> [Bohr] = [a.u.]                              1.88972613288564E+00
 [a.u.] = [Bohr] -> [Angstrom]                              5.29177208590000E-01
 [a.u.] -> [s]                                              2.41888432650478E-17
 [a.u.] -> [fs]                                             2.41888432650478E-02
 [a.u.] -> [J]                                              4.35974393937059E-18
 [a.u.] -> [N]                                              8.23872205491840E-08
 [a.u.] -> [K]                                              3.15774647902944E+05
 [a.u.] -> [kJ/mol]                                         2.62549961709828E+03
 [a.u.] -> [kcal/mol]                                       6.27509468713739E+02
 [a.u.] -> [Pa]                                             2.94210107994716E+13
 [a.u.] -> [bar]                                            2.94210107994716E+08
 [a.u.] -> [atm]                                            2.90362800883016E+08
 [a.u.] -> [eV]                                             2.72113838565563E+01
 [a.u.] -> [Hz]                                             6.57968392072181E+15
 [a.u.] -> [1/cm] (wave numbers)                            2.19474631370540E+05
 [a.u./Bohr**2] -> [1/cm]                                   5.14048714338585E+03
 

 CELL_TOP| Volume [angstrom^3]:                                        27000.000
 CELL_TOP| Vector a [angstrom    30.000     0.000     0.000    |a| =      30.000
 CELL_TOP| Vector b [angstrom     0.000    30.000     0.000    |b| =      30.000
 CELL_TOP| Vector c [angstrom     0.000     0.000    30.000    |c| =      30.000
 CELL_TOP| Angle (b,c), alpha [degree]:                                   90.000
 CELL_TOP| Angle (a,c), beta  [degree]:                                   90.000
 CELL_TOP| Angle (a,b), gamma [degree]:                                   90.000
 CELL_TOP| Numerically orthorhombic:                                         YES

 GENERATE|  Preliminary Number of Bonds generated:                             0
 GENERATE|  Achieved consistency in connectivity generation.

 CELL| Volume [angstrom^3]:                                            27000.000
 CELL| Vector a [angstrom]:      30.000     0.000     0.000    |a| =      30.000
 CELL| Vector b [angstrom]:       0.000    30.000     0.000    |b| =      30.000
 CELL| Vector c [angstrom]:       0.000     0.000    30.000    |c| =      30.000
 CELL| Angle (b,c), alpha [degree]:                                       90.000
 CELL| Angle (a,c), beta  [degree]:                                       90.000
 CELL| Angle (a,b), gamma [degree]:                                       90.000
 CELL| Numerically orthorhombic:                                             YES

 CELL_REF| Volume [angstrom^3]:                                        27000.000
 CELL_REF| Vector a [angstrom    30.000     0.000     0.000    |a| =      30.000
 CELL_REF| Vector b [angstrom     0.000    30.000     0.000    |b| =      30.000
 CELL_REF| Vector c [angstrom     0.000     0.000    30.000    |c| =      30.000
 CELL_REF| Angle (b,c), alpha [degree]:                                   90.000
 CELL_REF| Angle (a,c), beta  [degree]:                                   90.000
 CELL_REF| Angle (a,b), gamma [degree]:                                   90.000
 CELL_REF| Numerically orthorhombic:                                         YES

 *******************************************************************************
 *******************************************************************************
 **                                                                           **
 **     #####                         ##              ##                      **
 **    ##   ##            ##          ##              ##                      **
 **   ##     ##                       ##            ######                    **
 **   ##     ##  ##   ##  ##   #####  ##  ##   ####   ##    #####    #####    **
 **   ##     ##  ##   ##  ##  ##      ## ##   ##      ##   ##   ##  ##   ##   **
 **   ##  ## ##  ##   ##  ##  ##      ####     ###    ##   ######   ######    **
 **    ##  ###   ##   ##  ##  ##      ## ##      ##   ##   ##       ##        **
 **     #######   #####   ##   #####  ##  ##  ####    ##    #####   ##        **
 **           ##                                                    ##        **
 **                                                                           **
 **                                                ... make the atoms dance   **
 **                                                                           **
 **            Copyright (C) by CP2K developers group (2000 - 2017)           **
 **                                                                           **
 *******************************************************************************

 DFT| Spin unrestricted (spin-polarized) Kohn-Sham calculation               UKS
 DFT| Multiplicity                                                             2
 DFT| Number of spin states                                                    2
 DFT| Charge                                                                   0
 DFT| Self-interaction correction (SIC)                                       NO
 DFT| Cutoffs: density                                              1.000000E-10
 DFT|          gradient                                             1.000000E-10
 DFT|          tau                                                  1.000000E-10
 DFT|          cutoff_smoothing_range                               0.000000E+00
 DFT| XC density smoothing                                                  NONE
 DFT| XC derivatives                                              SPLINE2_SMOOTH
 FUNCTIONAL| ROUTINE=NEW
 FUNCTIONAL| PBE:
 FUNCTIONAL| J.P.Perdew, K.Burke, M.Ernzerhof, Phys. Rev. Letter, vol. 77, n 18,
 FUNCTIONAL|  pp. 3865-3868, (1996)sx=0.750sc=1.000{spin polarized}             
 vdW POTENTIAL|                                                   Pair Potential
 vdW POTENTIAL|          DFT-D3 (Version 3.1)
 vdW POTENTIAL|          Potential Form: S. Grimme et al, JCP 132: 154104 (2010)
 vdW POTENTIAL|          Zero Damping
 vdW POTENTIAL|          Cutoff Radius [Bohr]:                             37.79
 vdW POTENTIAL|          s6 Scaling Factor:                               1.0000
 vdW POTENTIAL|          sr6 Scaling Factor:                              1.2870
 vdW POTENTIAL|          s8 Scaling Factor:                               0.9280
 vdW POTENTIAL|          Cutoff for CN calculation:                   0.1000E-05

 QS| Method:                                                                 GPW
 QS| Density plane wave grid type                        NON-SPHERICAL FULLSPACE
 QS| Number of grid levels:                                                    4
 QS| Density cutoff [a.u.]:                                                225.0
 QS| Multi grid cutoff [a.u.]: 1) grid level                               225.0
 QS|                           2) grid level                                75.0
 QS|                           3) grid level                                25.0
 QS|                           4) grid level                                 8.3
 QS| Grid level progression factor:                                          3.0
 QS| Relative density cutoff [a.u.]:                                        25.0
 QS| Consistent realspace mapping and integration 
 QS| Interaction thresholds: eps_pgf_orb:                                1.0E-33
 QS|                         eps_filter_matrix:                          0.0E+00
 QS|                         eps_core_charge:                            1.0E-12
 QS|                         eps_rho_gspace:                             1.0E-10
 QS|                         eps_rho_rspace:                             1.0E-10
 QS|                         eps_gvg_rspace:                             1.0E-05
 QS|                         eps_ppl:                                    1.0E-02
 QS|                         eps_ppnl:                                   1.0E-07


 ATOMIC KIND INFORMATION

  1. Atomic kind: C                                     Number of atoms:      48

     Orbital Basis Set                                           DZVP-MOLOPT-GTH

       Number of orbital shell sets:                                           1
       Number of orbital shells:                                               5
       Number of primitive Cartesian functions:                                7
       Number of Cartesian basis functions:                                   14
       Number of spherical basis functions:                                   13
       Norm type:                                                              2

       Normalised Cartesian orbitals:

                        Set   Shell   Orbital            Exponent    Coefficient

                          1       1    2s                6.132625      -0.263661
                                                         2.625196      -0.231112
                                                         1.045457       0.042712
                                                         0.478316       0.306085
                                                         0.178617       0.065483
                                                         0.075145       0.000568
                                                         0.030287       0.000417

                          1       2    3s                6.132625       0.131937
                                                         2.625196       0.414269
                                                         1.045457      -0.593590
                                                         0.478316       0.644922
                                                         0.178617       0.069203
                                                         0.075145      -0.145101
                                                         0.030287       0.008247

                          1       3    3px               6.132625       0.562677
                                                         2.625196       0.633910
                                                         1.045457       0.379157
                                                         0.478316       0.235193
                                                         0.178617       0.052379
                                                         0.075145       0.003677
                                                         0.030287       0.000105
                          1       3    3py               6.132625       0.562677
                                                         2.625196       0.633910
                                                         1.045457       0.379157
                                                         0.478316       0.235193
                                                         0.178617       0.052379
                                                         0.075145       0.003677
                                                         0.030287       0.000105
                          1       3    3pz               6.132625       0.562677
                                                         2.625196       0.633910
                                                         1.045457       0.379157
                                                         0.478316       0.235193
                                                         0.178617       0.052379
                                                         0.075145       0.003677
                                                         0.030287       0.000105

                          1       4    4px               6.132625      -0.472364
                                                         2.625196      -0.221326
                                                         1.045457      -0.481781
                                                         0.478316       0.135466
                                                         0.178617       0.072281
                                                         0.075145       0.024920
                                                         0.030287       0.002706
                          1       4    4py               6.132625      -0.472364
                                                         2.625196      -0.221326
                                                         1.045457      -0.481781
                                                         0.478316       0.135466
                                                         0.178617       0.072281
                                                         0.075145       0.024920
                                                         0.030287       0.002706
                          1       4    4pz               6.132625      -0.472364
                                                         2.625196      -0.221326
                                                         1.045457      -0.481781
                                                         0.478316       0.135466
                                                         0.178617       0.072281
                                                         0.075145       0.024920
                                                         0.030287       0.002706

                          1       5    4dx2              6.132625       0.874783
                                                         2.625196       0.375772
                                                         1.045457       0.653959
                                                         0.478316       0.191007
                                                         0.178617       0.018656
                                                         0.075145       0.003649
                                                         0.030287      -0.000011
                          1       5    4dxy              6.132625       1.515169
                                                         2.625196       0.650856
                                                         1.045457       1.132690
                                                         0.478316       0.330834
                                                         0.178617       0.032314
                                                         0.075145       0.006321
                                                         0.030287      -0.000019
                          1       5    4dxz              6.132625       1.515169
                                                         2.625196       0.650856
                                                         1.045457       1.132690
                                                         0.478316       0.330834
                                                         0.178617       0.032314
                                                         0.075145       0.006321
                                                         0.030287      -0.000019
                          1       5    4dy2              6.132625       0.874783
                                                         2.625196       0.375772
                                                         1.045457       0.653959
                                                         0.478316       0.191007
                                                         0.178617       0.018656
                                                         0.075145       0.003649
                                                         0.030287      -0.000011
                          1       5    4dyz              6.132625       1.515169
                                                         2.625196       0.650856
                                                         1.045457       1.132690
                                                         0.478316       0.330834
                                                         0.178617       0.032314
                                                         0.075145       0.006321
                                                         0.030287      -0.000019
                          1       5    4dz2              6.132625       0.874783
                                                         2.625196       0.375772
                                                         1.045457       0.653959
                                                         0.478316       0.191007
                                                         0.178617       0.018656
                                                         0.075145       0.003649
                                                         0.030287      -0.000011

     Auxiliary Fit Basis Set                                               pFIT3

       Number of orbital shell sets:                                           7
       Number of orbital shells:                                               7
       Number of primitive Cartesian functions:                                7
       Number of Cartesian basis functions:                                   18
       Number of spherical basis functions:                                   17
       Norm type:                                                              2

       Normalised Cartesian orbitals:

                        Set   Shell   Orbital            Exponent    Coefficient

                          1       1    1s                0.143490       0.166160

                          2       1    1s                0.450840       0.392127

                          3       1    1s                4.420950       2.172935

                          4       1    1px               0.152150       0.135450
                          4       1    1py               0.152150       0.135450
                          4       1    1pz               0.152150       0.135450

                          5       1    1px               0.670820       0.865362
                          5       1    1py               0.670820       0.865362
                          5       1    1pz               0.670820       0.865362

                          6       1    1px               3.053900       5.754513
                          6       1    1py               3.053900       5.754513
                          6       1    1pz               3.053900       5.754513

                          7       1    1dx2              0.800000       1.113825
                          7       1    1dxy              0.800000       1.929201
                          7       1    1dxz              0.800000       1.929201
                          7       1    1dy2              0.800000       1.113825
                          7       1    1dyz              0.800000       1.929201
                          7       1    1dz2              0.800000       1.113825

     GTH Potential information for                                    GTH-PBE-q4

       Description:                       Goedecker-Teter-Hutter pseudopotential
                                           Goedecker et al., PRB 54, 1703 (1996)
                                          Hartwigsen et al., PRB 58, 3641 (1998)
                                                      Krack, TCA 114, 145 (2005)

       Gaussian exponent of the core charge distribution:               4.364419
       Electronic configuration (s p d ...):                               2   2

       Parameters of the local part of the GTH pseudopotential:

                          rloc        C1          C2          C3          C4
                        0.338471   -8.803674    1.339211

       Parameters of the non-local part of the GTH pseudopotential:

                   l      r(l)      h(i,j,l)

                   0    0.302576    9.622487
                   1    0.291507

  2. Atomic kind: N                                     Number of atoms:       4

     Orbital Basis Set                                           TZVP-MOLOPT-GTH

       Number of orbital shell sets:                                           1
       Number of orbital shells:                                               7
       Number of primitive Cartesian functions:                                7
       Number of Cartesian basis functions:                                   18
       Number of spherical basis functions:                                   17
       Norm type:                                                              2

       Normalised Cartesian orbitals:

                        Set   Shell   Orbital            Exponent    Coefficient

                          1       1    2s                9.042730      -0.237404
                                                         3.882225      -0.265910
                                                         1.512880       0.102064
                                                         0.586631       0.295369
                                                         0.222851       0.088647
                                                         0.084583       0.003860
                                                         0.039194       0.000722

                          1       2    3s                9.042730       0.259152
                                                         3.882225       0.251432
                                                         1.512880      -0.043896
                                                         0.586631      -0.328079
                                                         0.222851       0.175857
                                                         0.084583       0.069169
                                                         0.039194       0.004207

                          1       3    4s                9.042730       0.330627
                                                         3.882225       0.738242
                                                         1.512880      -0.570149
                                                         0.586631       0.474918
                                                         0.222851       0.192885
                                                         0.084583      -0.214824
                                                         0.039194       0.031577

                          1       4    3px               9.042730       0.822162
                                                         3.882225       0.990771
                                                         1.512880       0.665657
                                                         0.586631       0.321705
                                                         0.222851       0.063706
                                                         0.084583       0.004155
                                                         0.039194      -0.000005
                          1       4    3py               9.042730       0.822162
                                                         3.882225       0.990771
                                                         1.512880       0.665657
                                                         0.586631       0.321705
                                                         0.222851       0.063706
                                                         0.084583       0.004155
                                                         0.039194      -0.000005
                          1       4    3pz               9.042730       0.822162
                                                         3.882225       0.990771
                                                         1.512880       0.665657
                                                         0.586631       0.321705
                                                         0.222851       0.063706
                                                         0.084583       0.004155
                                                         0.039194      -0.000005

                          1       5    4px               9.042730      -0.251449
                                                         3.882225      -0.215479
                                                         1.512880      -0.200519
                                                         0.586631      -0.125283
                                                         0.222851       0.136219
                                                         0.084583       0.034362
                                                         0.039194       0.000879
                          1       5    4py               9.042730      -0.251449
                                                         3.882225      -0.215479
                                                         1.512880      -0.200519
                                                         0.586631      -0.125283
                                                         0.222851       0.136219
                                                         0.084583       0.034362
                                                         0.039194       0.000879
                          1       5    4pz               9.042730      -0.251449
                                                         3.882225      -0.215479
                                                         1.512880      -0.200519
                                                         0.586631      -0.125283
                                                         0.222851       0.136219
                                                         0.084583       0.034362
                                                         0.039194       0.000879

                          1       6    5px               9.042730      -1.546561
                                                         3.882225       0.742834
                                                         1.512880      -1.783177
                                                         0.586631       0.969458
                                                         0.222851       0.077327
                                                         0.084583      -0.117711
                                                         0.039194       0.027593
                          1       6    5py               9.042730      -1.546561
                                                         3.882225       0.742834
                                                         1.512880      -1.783177
                                                         0.586631       0.969458
                                                         0.222851       0.077327
                                                         0.084583      -0.117711
                                                         0.039194       0.027593
                          1       6    5pz               9.042730      -1.546561
                                                         3.882225       0.742834
                                                         1.512880      -1.783177
                                                         0.586631       0.969458
                                                         0.222851       0.077327
                                                         0.084583      -0.117711
                                                         0.039194       0.027593

                          1       7    4dx2              9.042730       1.099742
                                                         3.882225       0.532064
                                                         1.512880       0.873643
                                                         0.586631       0.456348
                                                         0.222851       0.017840
                                                         0.084583      -0.000857
                                                         0.039194      -0.000086
                          1       7    4dxy              9.042730       1.904809
                                                         3.882225       0.921562
                                                         1.512880       1.513195
                                                         0.586631       0.790419
                                                         0.222851       0.030900
                                                         0.084583      -0.001484
                                                         0.039194      -0.000150
                          1       7    4dxz              9.042730       1.904809
                                                         3.882225       0.921562
                                                         1.512880       1.513195
                                                         0.586631       0.790419
                                                         0.222851       0.030900
                                                         0.084583      -0.001484
                                                         0.039194      -0.000150
                          1       7    4dy2              9.042730       1.099742
                                                         3.882225       0.532064
                                                         1.512880       0.873643
                                                         0.586631       0.456348
                                                         0.222851       0.017840
                                                         0.084583      -0.000857
                                                         0.039194      -0.000086
                          1       7    4dyz              9.042730       1.904809
                                                         3.882225       0.921562
                                                         1.512880       1.513195
                                                         0.586631       0.790419
                                                         0.222851       0.030900
                                                         0.084583      -0.001484
                                                         0.039194      -0.000150
                          1       7    4dz2              9.042730       1.099742
                                                         3.882225       0.532064
                                                         1.512880       0.873643
                                                         0.586631       0.456348
                                                         0.222851       0.017840
                                                         0.084583      -0.000857
                                                         0.039194      -0.000086

     Auxiliary Fit Basis Set                                               pFIT3

       Number of orbital shell sets:                                           7
       Number of orbital shells:                                               7
       Number of primitive Cartesian functions:                                7
       Number of Cartesian basis functions:                                   18
       Number of spherical basis functions:                                   17
       Norm type:                                                              2

       Normalised Cartesian orbitals:

                        Set   Shell   Orbital            Exponent    Coefficient

                          1       1    1s                0.202700       0.215303

                          2       1    1s                0.651190       0.516643

                          3       1    1s                6.295090       2.832445

                          4       1    1px               0.225130       0.221046
                          4       1    1py               0.225130       0.221046
                          4       1    1pz               0.225130       0.221046

                          5       1    1px               0.997700       1.421314
                          5       1    1py               0.997700       1.421314
                          5       1    1pz               0.997700       1.421314

                          6       1    1px               4.447200       9.205522
                          6       1    1py               4.447200       9.205522
                          6       1    1pz               4.447200       9.205522

                          7       1    1dx2              0.900000       1.368781
                          7       1    1dxy              0.900000       2.370798
                          7       1    1dxz              0.900000       2.370798
                          7       1    1dy2              0.900000       1.368781
                          7       1    1dyz              0.900000       2.370798
                          7       1    1dz2              0.900000       1.368781

     GTH Potential information for                                    GTH-PBE-q5

       Description:                       Goedecker-Teter-Hutter pseudopotential
                                           Goedecker et al., PRB 54, 1703 (1996)
                                          Hartwigsen et al., PRB 58, 3641 (1998)
                                                      Krack, TCA 114, 145 (2005)

       Gaussian exponent of the core charge distribution:               6.208322
       Electronic configuration (s p d ...):                               2   3

       Parameters of the local part of the GTH pseudopotential:

                          rloc        C1          C2          C3          C4
                        0.283791  -12.415226    1.868096

       Parameters of the non-local part of the GTH pseudopotential:

                   l      r(l)      h(i,j,l)

                   0    0.255405   13.630263
                   1    0.245495

  3. Atomic kind: O                                     Number of atoms:       8

     Orbital Basis Set                                           DZVP-MOLOPT-GTH

       Number of orbital shell sets:                                           1
       Number of orbital shells:                                               5
       Number of primitive Cartesian functions:                                7
       Number of Cartesian basis functions:                                   14
       Number of spherical basis functions:                                   13
       Norm type:                                                              2

       Normalised Cartesian orbitals:

                        Set   Shell   Orbital            Exponent    Coefficient

                          1       1    2s               12.015955      -0.284499
                                                         5.108150      -0.322498
                                                         2.048398       0.148191
                                                         0.832382       0.295475
                                                         0.352316       0.150829
                                                         0.142977       0.015788
                                                         0.046761      -0.000019

                          1       2    3s               12.015955       0.725622
                                                         5.108150       0.644384
                                                         2.048398      -0.157350
                                                         0.832382      -0.853528
                                                         0.352316       0.146068
                                                         0.142977       0.153978
                                                         0.046761       0.000658

                          1       3    3px              12.015955       1.192141
                                                         5.108150       1.354170
                                                         2.048398       0.897267
                                                         0.832382       0.408839
                                                         0.352316       0.116648
                                                         0.142977       0.022184
                                                         0.046761       0.000308
                          1       3    3py              12.015955       1.192141
                                                         5.108150       1.354170
                                                         2.048398       0.897267
                                                         0.832382       0.408839
                                                         0.352316       0.116648
                                                         0.142977       0.022184
                                                         0.046761       0.000308
                          1       3    3pz              12.015955       1.192141
                                                         5.108150       1.354170
                                                         2.048398       0.897267
                                                         0.832382       0.408839
                                                         0.352316       0.116648
                                                         0.142977       0.022184
                                                         0.046761       0.000308

                          1       4    4px              12.015955      -1.062381
                                                         5.108150      -1.285791
                                                         2.048398      -0.727000
                                                         0.832382      -0.522764
                                                         0.352316       0.182681
                                                         0.142977       0.087560
                                                         0.046761       0.000981
                          1       4    4py              12.015955      -1.062381
                                                         5.108150      -1.285791
                                                         2.048398      -0.727000
                                                         0.832382      -0.522764
                                                         0.352316       0.182681
                                                         0.142977       0.087560
                                                         0.046761       0.000981
                          1       4    4pz              12.015955      -1.062381
                                                         5.108150      -1.285791
                                                         2.048398      -0.727000
                                                         0.832382      -0.522764
                                                         0.352316       0.182681
                                                         0.142977       0.087560
                                                         0.046761       0.000981

                          1       5    4dx2             12.015955       1.125955
                                                         5.108150       1.160468
                                                         2.048398       0.999335
                                                         0.832382       0.756334
                                                         0.352316       0.048604
                                                         0.142977       0.010378
                                                         0.046761      -0.000027
                          1       5    4dxy             12.015955       1.950212
                                                         5.108150       2.009990
                                                         2.048398       1.730899
                                                         0.832382       1.310009
                                                         0.352316       0.084185
                                                         0.142977       0.017974
                                                         0.046761      -0.000046
                          1       5    4dxz             12.015955       1.950212
                                                         5.108150       2.009990
                                                         2.048398       1.730899
                                                         0.832382       1.310009
                                                         0.352316       0.084185
                                                         0.142977       0.017974
                                                         0.046761      -0.000046
                          1       5    4dy2             12.015955       1.125955
                                                         5.108150       1.160468
                                                         2.048398       0.999335
                                                         0.832382       0.756334
                                                         0.352316       0.048604
                                                         0.142977       0.010378
                                                         0.046761      -0.000027
                          1       5    4dyz             12.015955       1.950212
                                                         5.108150       2.009990
                                                         2.048398       1.730899
                                                         0.832382       1.310009
                                                         0.352316       0.084185
                                                         0.142977       0.017974
                                                         0.046761      -0.000046
                          1       5    4dz2             12.015955       1.125955
                                                         5.108150       1.160468
                                                         2.048398       0.999335
                                                         0.832382       0.756334
                                                         0.352316       0.048604
                                                         0.142977       0.010378
                                                         0.046761      -0.000027

     Auxiliary Fit Basis Set                                               pFIT3

       Number of orbital shell sets:                                           7
       Number of orbital shells:                                               7
       Number of primitive Cartesian functions:                                7
       Number of Cartesian basis functions:                                   18
       Number of spherical basis functions:                                   17
       Norm type:                                                              2

       Normalised Cartesian orbitals:

                        Set   Shell   Orbital            Exponent    Coefficient

                          1       1    1s                0.270610       0.267404

                          2       1    1s                0.884930       0.650267

                          3       1    1s                8.504090       3.549204

                          4       1    1px               0.310400       0.330250
                          4       1    1py               0.310400       0.330250
                          4       1    1pz               0.310400       0.330250

                          5       1    1px               1.382560       2.136954
                          5       1    1py               1.382560       2.136954
                          5       1    1pz               1.382560       2.136954

                          6       1    1px               6.082640      13.616178
                          6       1    1py               6.082640      13.616178
                          6       1    1pz               6.082640      13.616178

                          7       1    1dx2              1.000000       1.645923
                          7       1    1dxy              1.000000       2.850822
                          7       1    1dxz              1.000000       2.850822
                          7       1    1dy2              1.000000       1.645923
                          7       1    1dyz              1.000000       2.850822
                          7       1    1dz2              1.000000       1.645923

     GTH Potential information for                                    GTH-PBE-q6

       Description:                       Goedecker-Teter-Hutter pseudopotential
                                           Goedecker et al., PRB 54, 1703 (1996)
                                          Hartwigsen et al., PRB 58, 3641 (1998)
                                                      Krack, TCA 114, 145 (2005)

       Gaussian exponent of the core charge distribution:               8.360253
       Electronic configuration (s p d ...):                               2   4

       Parameters of the local part of the GTH pseudopotential:

                          rloc        C1          C2          C3          C4
                        0.244554  -16.667215    2.487311

       Parameters of the non-local part of the GTH pseudopotential:

                   l      r(l)      h(i,j,l)

                   0    0.220956   18.337458
                   1    0.211332

  4. Atomic kind: Co                                    Number of atoms:       1

     Orbital Basis Set                                        TZVP-MOLOPT-SR-GTH

       Number of orbital shell sets:                                           1
       Number of orbital shells:                                              11
       Number of primitive Cartesian functions:                                6
       Number of Cartesian basis functions:                                   41
       Number of spherical basis functions:                                   35
       Norm type:                                                              2

       Normalised Cartesian orbitals:

                        Set   Shell   Orbital            Exponent    Coefficient

                          1       1    2s                8.365268       1.924378
                                                         4.376457      -0.109961
                                                         1.999998      -1.218901
                                                         0.834300      -0.170695
                                                         0.307482       0.064251
                                                         0.095840      -0.037951

                          1       2    3s                8.365268      -0.886901
                                                         4.376457       0.766715
                                                         1.999998      -0.291048
                                                         0.834300      -0.425223
                                                         0.307482       0.049368
                                                         0.095840       0.124719

                          1       3    4s                8.365268       1.605435
                                                         4.376457       0.124176
                                                         1.999998      -0.607419
                                                         0.834300       0.382472
                                                         0.307482      -0.519695
                                                         0.095840       0.083226

                          1       4    5s                8.365268       1.395801
                                                         4.376457      -1.060028
                                                         1.999998       0.101998
                                                         0.834300       0.210519
                                                         0.307482       0.105135
                                                         0.095840       0.056491

                          1       5    3px               8.365268       0.910760
                                                         4.376457      -2.016773
                                                         1.999998      -1.712999
                                                         0.834300      -0.403487
                                                         0.307482      -0.031047
                                                         0.095840       0.005898
                          1       5    3py               8.365268       0.910760
                                                         4.376457      -2.016773
                                                         1.999998      -1.712999
                                                         0.834300      -0.403487
                                                         0.307482      -0.031047
                                                         0.095840       0.005898
                          1       5    3pz               8.365268       0.910760
                                                         4.376457      -2.016773
                                                         1.999998      -1.712999
                                                         0.834300      -0.403487
                                                         0.307482      -0.031047
                                                         0.095840       0.005898

                          1       6    4px               8.365268      -0.210213
                                                         4.376457       0.101287
                                                         1.999998       0.132997
                                                         0.834300      -0.057829
                                                         0.307482       0.153764
                                                         0.095840       0.048543
                          1       6    4py               8.365268      -0.210213
                                                         4.376457       0.101287
                                                         1.999998       0.132997
                                                         0.834300      -0.057829
                                                         0.307482       0.153764
                                                         0.095840       0.048543
                          1       6    4pz               8.365268      -0.210213
                                                         4.376457       0.101287
                                                         1.999998       0.132997
                                                         0.834300      -0.057829
                                                         0.307482       0.153764
                                                         0.095840       0.048543

                          1       7    5px               8.365268       0.980112
                                                         4.376457       0.332999
                                                         1.999998       1.923077
                                                         0.834300      -0.351506
                                                         0.307482      -0.401645
                                                         0.095840       0.064495
                          1       7    5py               8.365268       0.980112
                                                         4.376457       0.332999
                                                         1.999998       1.923077
                                                         0.834300      -0.351506
                                                         0.307482      -0.401645
                                                         0.095840       0.064495
                          1       7    5pz               8.365268       0.980112
                                                         4.376457       0.332999
                                                         1.999998       1.923077
                                                         0.834300      -0.351506
                                                         0.307482      -0.401645
                                                         0.095840       0.064495

                          1       8    4dx2              8.365268       9.725787
                                                         4.376457       5.108212
                                                         1.999998       1.640339
                                                         0.834300       0.436347
                                                         0.307482       0.056177
                                                         0.095840       0.001064
                          1       8    4dxy              8.365268      16.845557
                                                         4.376457       8.847683
                                                         1.999998       2.841151
                                                         0.834300       0.755775
                                                         0.307482       0.097301
                                                         0.095840       0.001843
                          1       8    4dxz              8.365268      16.845557
                                                         4.376457       8.847683
                                                         1.999998       2.841151
                                                         0.834300       0.755775
                                                         0.307482       0.097301
                                                         0.095840       0.001843
                          1       8    4dy2              8.365268       9.725787
                                                         4.376457       5.108212
                                                         1.999998       1.640339
                                                         0.834300       0.436347
                                                         0.307482       0.056177
                                                         0.095840       0.001064
                          1       8    4dyz              8.365268      16.845557
                                                         4.376457       8.847683
                                                         1.999998       2.841151
                                                         0.834300       0.755775
                                                         0.307482       0.097301
                                                         0.095840       0.001843
                          1       8    4dz2              8.365268       9.725787
                                                         4.376457       5.108212
                                                         1.999998       1.640339
                                                         0.834300       0.436347
                                                         0.307482       0.056177
                                                         0.095840       0.001064

                          1       9    5dx2              8.365268      -5.230662
                                                         4.376457      -3.007254
                                                         1.999998      -1.056238
                                                         0.834300      -0.149494
                                                         0.307482       0.092734
                                                         0.095840       0.018086
                          1       9    5dxy              8.365268      -9.059773
                                                         4.376457      -5.208717
                                                         1.999998      -1.829458
                                                         0.834300      -0.258932
                                                         0.307482       0.160620
                                                         0.095840       0.031326
                          1       9    5dxz              8.365268      -9.059773
                                                         4.376457      -5.208717
                                                         1.999998      -1.829458
                                                         0.834300      -0.258932
                                                         0.307482       0.160620
                                                         0.095840       0.031326
                          1       9    5dy2              8.365268      -5.230662
                                                         4.376457      -3.007254
                                                         1.999998      -1.056238
                                                         0.834300      -0.149494
                                                         0.307482       0.092734
                                                         0.095840       0.018086
                          1       9    5dyz              8.365268      -9.059773
                                                         4.376457      -5.208717
                                                         1.999998      -1.829458
                                                         0.834300      -0.258932
                                                         0.307482       0.160620
                                                         0.095840       0.031326
                          1       9    5dz2              8.365268      -5.230662
                                                         4.376457      -3.007254
                                                         1.999998      -1.056238
                                                         0.834300      -0.149494
                                                         0.307482       0.092734
                                                         0.095840       0.018086

                          1      10    6dx2              8.365268      11.255091
                                                         4.376457       7.424184
                                                         1.999998       3.441122
                                                         0.834300      -0.567181
                                                         0.307482      -0.105605
                                                         0.095840       0.014029
                          1      10    6dxy              8.365268      19.494389
                                                         4.376457      12.859064
                                                         1.999998       5.960198
                                                         0.834300      -0.982387
                                                         0.307482      -0.182913
                                                         0.095840       0.024299
                          1      10    6dxz              8.365268      19.494389
                                                         4.376457      12.859064
                                                         1.999998       5.960198
                                                         0.834300      -0.982387
                                                         0.307482      -0.182913
                                                         0.095840       0.024299
                          1      10    6dy2              8.365268      11.255091
                                                         4.376457       7.424184
                                                         1.999998       3.441122
                                                         0.834300      -0.567181
                                                         0.307482      -0.105605
                                                         0.095840       0.014029
                          1      10    6dyz              8.365268      19.494389
                                                         4.376457      12.859064
                                                         1.999998       5.960198
                                                         0.834300      -0.982387
                                                         0.307482      -0.182913
                                                         0.095840       0.024299
                          1      10    6dz2              8.365268      11.255091
                                                         4.376457       7.424184
                                                         1.999998       3.441122
                                                         0.834300      -0.567181
                                                         0.307482      -0.105605
                                                         0.095840       0.014029

                          1      11    5fx3              8.365268       0.376644
                                                         4.376457      -0.787988
                                                         1.999998      -0.169072
                                                         0.834300      -0.368559
                                                         0.307482      -0.054769
                                                         0.095840      -0.002602
                          1      11    5fx2y             8.365268       0.842202
                                                         4.376457      -1.761994
                                                         1.999998      -0.378057
                                                         0.834300      -0.824124
                                                         0.307482      -0.122468
                                                         0.095840      -0.005817
                          1      11    5fx2z             8.365268       0.842202
                                                         4.376457      -1.761994
                                                         1.999998      -0.378057
                                                         0.834300      -0.824124
                                                         0.307482      -0.122468
                                                         0.095840      -0.005817
                          1      11    5fxy2             8.365268       0.842202
                                                         4.376457      -1.761994
                                                         1.999998      -0.378057
                                                         0.834300      -0.824124
                                                         0.307482      -0.122468
                                                         0.095840      -0.005817
                          1      11    5fxyz             8.365268       1.458737
                                                         4.376457      -3.051863
                                                         1.999998      -0.654814
                                                         0.834300      -1.427424
                                                         0.307482      -0.212121
                                                         0.095840      -0.010076
                          1      11    5fxz2             8.365268       0.842202
                                                         4.376457      -1.761994
                                                         1.999998      -0.378057
                                                         0.834300      -0.824124
                                                         0.307482      -0.122468
                                                         0.095840      -0.005817
                          1      11    5fy3              8.365268       0.376644
                                                         4.376457      -0.787988
                                                         1.999998      -0.169072
                                                         0.834300      -0.368559
                                                         0.307482      -0.054769
                                                         0.095840      -0.002602
                          1      11    5fy2z             8.365268       0.842202
                                                         4.376457      -1.761994
                                                         1.999998      -0.378057
                                                         0.834300      -0.824124
                                                         0.307482      -0.122468
                                                         0.095840      -0.005817
                          1      11    5fyz2             8.365268       0.842202
                                                         4.376457      -1.761994
                                                         1.999998      -0.378057
                                                         0.834300      -0.824124
                                                         0.307482      -0.122468
                                                         0.095840      -0.005817
                          1      11    5fz3              8.365268       0.376644
                                                         4.376457      -0.787988
                                                         1.999998      -0.169072
                                                         0.834300      -0.368559
                                                         0.307482      -0.054769
                                                         0.095840      -0.002602

     Auxiliary Fit Basis Set                                              cFIT10

       Number of orbital shell sets:                                           6
       Number of orbital shells:                                               7
       Number of primitive Cartesian functions:                               10
       Number of Cartesian basis functions:                                   21
       Number of spherical basis functions:                                   19
       Norm type:                                                              2

       Normalised Cartesian orbitals:

                        Set   Shell   Orbital            Exponent    Coefficient

                          1       1    1s                0.125783       0.150531

                          2       1    1s                0.565036       0.110023
                                                         1.647462       0.994109
                                                         7.697337      -0.997458

                          2       2    2s                0.565036      -0.150563
                                                         1.647462       0.366430
                                                         7.697337       2.853192

                          3       1    1px               0.198223       0.188531
                          3       1    1py               0.198223       0.188531
                          3       1    1pz               0.198223       0.188531

                          4       1    1px               0.920112       0.610955
                                                         2.697295       2.981695
                          4       1    1py               0.920112       0.610955
                                                         2.697295       2.981695
                          4       1    1pz               0.920112       0.610955
                                                         2.697295       2.981695

                          5       1    1dx2              0.359372       0.274544
                          5       1    1dxy              0.359372       0.475525
                          5       1    1dxz              0.359372       0.475525
                          5       1    1dy2              0.359372       0.274544
                          5       1    1dyz              0.359372       0.475525
                          5       1    1dz2              0.359372       0.274544

                          6       1    1dx2              1.545683       2.394313
                                                         5.865347      17.317828
                          6       1    1dxy              1.545683       4.147072
                                                         5.865347      29.995359
                          6       1    1dxz              1.545683       4.147072
                                                         5.865347      29.995359
                          6       1    1dy2              1.545683       2.394313
                                                         5.865347      17.317828
                          6       1    1dyz              1.545683       4.147072
                                                         5.865347      29.995359
                          6       1    1dz2              1.545683       2.394313
                                                         5.865347      17.317828

     GTH Potential information for                                   GTH-PBE-q17

       Description:                       Goedecker-Teter-Hutter pseudopotential
                                           Goedecker et al., PRB 54, 1703 (1996)
                                          Hartwigsen et al., PRB 58, 3641 (1998)
                                                      Krack, TCA 114, 145 (2005)

       Gaussian exponent of the core charge distribution:               3.967467
       Electronic configuration (s p d ...):                           4   6   7

       Parameters of the local part of the GTH pseudopotential:

                          rloc        C1          C2          C3          C4
                        0.355000    4.828197    0.368143

       Parameters of the non-local part of the GTH pseudopotential:

                   l      r(l)      h(i,j,l)

                   0    0.276801   -0.584496    9.286293
                                    9.286293  -11.988552
                   1    0.268158   -6.851953    5.680133
                                    5.680133   -6.720824
                   2    0.222584  -12.333150

  5. Atomic kind: H                                     Number of atoms:      28

     Orbital Basis Set                                           DZVP-MOLOPT-GTH

       Number of orbital shell sets:                                           1
       Number of orbital shells:                                               3
       Number of primitive Cartesian functions:                                7
       Number of Cartesian basis functions:                                    5
       Number of spherical basis functions:                                    5
       Norm type:                                                              2

       Normalised Cartesian orbitals:

                        Set   Shell   Orbital            Exponent    Coefficient

                          1       1    2s               11.478000       0.129129
                                                         3.700759       0.177012
                                                         1.446884       0.141285
                                                         0.716815       0.245670
                                                         0.247919       0.094768
                                                         0.066918       0.004062
                                                         0.021708      -0.000053

                          1       2    3s               11.478000      -0.079256
                                                         3.700759      -0.152992
                                                         1.446884       0.015066
                                                         0.716815      -0.331234
                                                         0.247919       0.210690
                                                         0.066918       0.058630
                                                         0.021708      -0.003429

                          1       3    3px              11.478000       0.325290
                                                         3.700759       0.187466
                                                         1.446884       0.443300
                                                         0.716815       0.267738
                                                         0.247919       0.088285
                                                         0.066918       0.019092
                                                         0.021708       0.000629
                          1       3    3py              11.478000       0.325290
                                                         3.700759       0.187466
                                                         1.446884       0.443300
                                                         0.716815       0.267738
                                                         0.247919       0.088285
                                                         0.066918       0.019092
                                                         0.021708       0.000629
[...]
 flops    19 x    11 x     6            101122560     100.0%      0.0%      0.0%
 flops    35 x    24 x    17            166676160     100.0%      0.0%      0.0%
 flops    35 x    25 x    17            173026000     100.0%      0.0%      0.0%
 flops    52 x    32 x    52            199360512     100.0%      0.0%      0.0%
 flops    13 x     1 x     5            207916800     100.0%      0.0%      0.0%
 flops     5 x     1 x    13            207916800     100.0%      0.0%      0.0%
 flops    57 x    32 x    52            218529792     100.0%      0.0%      0.0%
 flops    32 x    32 x    52            231735296     100.0%      0.0%      0.0%
 flops    53 x    32 x    52            253992960     100.0%      0.0%      0.0%
 flops    52 x    32 x    53            253992960     100.0%      0.0%      0.0%
 flops    54 x    32 x    52            258785280     100.0%      0.0%      0.0%
 flops    52 x    32 x    54            258785280     100.0%      0.0%      0.0%
 flops    17 x    17 x    32            272557056     100.0%      0.0%      0.0%
 flops    13 x    13 x    32            276197376     100.0%      0.0%      0.0%
 flops    57 x    32 x    53            278415360     100.0%      0.0%      0.0%
 flops    57 x    32 x    54            283668480     100.0%      0.0%      0.0%
 flops    32 x    32 x    53            295239680     100.0%      0.0%      0.0%
 flops    32 x    32 x    54            300810240     100.0%      0.0%      0.0%
 flops    53 x    32 x    53            323596800     100.0%      0.0%      0.0%
 flops    17 x    24 x    17            323827968     100.0%      0.0%      0.0%
 flops    53 x    32 x    54            329702400     100.0%      0.0%      0.0%
 flops    54 x    32 x    53            329702400     100.0%      0.0%      0.0%
 flops    54 x    32 x    54            335923200     100.0%      0.0%      0.0%
 flops    17 x    25 x    17            336164800     100.0%      0.0%      0.0%
 flops    35 x    24 x     5            343156800     100.0%      0.0%      0.0%
 flops    35 x    25 x     5            356230000     100.0%      0.0%      0.0%
 flops    17 x    11 x    19            613958400     100.0%      0.0%      0.0%
 flops    19 x    11 x    17            613958400     100.0%      0.0%      0.0%
 flops     5 x    24 x    17            666704640     100.0%      0.0%      0.0%
 flops    17 x    24 x     5            666704640     100.0%      0.0%      0.0%
 flops     5 x    25 x    17            692104000     100.0%      0.0%      0.0%
 flops    17 x    25 x     5            692104000     100.0%      0.0%      0.0%
 flops     6 x    11 x     6            894136320     100.0%      0.0%      0.0%
 flops    19 x    32 x    19            998092800     100.0%      0.0%      0.0%
 flops    13 x     1 x    13           1081167360     100.0%      0.0%      0.0%
 flops     5 x    24 x     5           1372627200     100.0%      0.0%      0.0%
 flops     5 x    25 x     5           1424920000     100.0%      0.0%      0.0%
 flops    35 x    32 x    17           1782448640     100.0%      0.0%      0.0%
 flops    35 x    24 x    13           1784415360     100.0%      0.0%      0.0%
 flops    35 x    25 x    13           1852396000     100.0%      0.0%      0.0%
 flops    13 x    24 x    17           3466864128     100.0%      0.0%      0.0%
 flops    17 x    24 x    13           3466864128     100.0%      0.0%      0.0%
 flops    13 x    25 x    17           3598940800     100.0%      0.0%      0.0%
 flops    17 x    25 x    13           3598940800     100.0%      0.0%      0.0%
 flops    35 x    32 x     5           3669747200     100.0%      0.0%      0.0%
 flops    17 x    11 x     6           5428684800     100.0%      0.0%      0.0%
 flops     6 x    11 x    17           5428684800     100.0%      0.0%      0.0%
 flops     5 x    32 x    17           7129794560     100.0%      0.0%      0.0%
 flops    17 x    32 x     5           7129794560     100.0%      0.0%      0.0%
 flops    13 x    24 x     5           7137661440     100.0%      0.0%      0.0%
 flops     5 x    24 x    13           7137661440     100.0%      0.0%      0.0%
 flops    13 x    25 x     5           7409584000     100.0%      0.0%      0.0%
 flops     5 x    25 x    13           7409584000     100.0%      0.0%      0.0%
 flops    19 x    32 x     6           8825241600     100.0%      0.0%      0.0%
 flops     6 x    32 x    19           8825241600     100.0%      0.0%      0.0%
 flops     5 x    32 x     5          14678988800     100.0%      0.0%      0.0%
 flops    35 x    32 x    13          19082685440     100.0%      0.0%      0.0%
 flops    17 x    11 x    17          32813383680     100.0%      0.0%      0.0%
 flops    13 x    32 x    17          37074931712     100.0%      0.0%      0.0%
 flops    17 x    32 x    13          37074931712     100.0%      0.0%      0.0%
 flops    13 x    24 x    13          37115839488     100.0%      0.0%      0.0%
 flops    13 x    25 x    13          38529836800     100.0%      0.0%      0.0%
 flops    19 x    32 x    17          53581824000     100.0%      0.0%      0.0%
 flops    17 x    32 x    19          53581824000     100.0%      0.0%      0.0%
 flops    13 x    32 x     5          76330741760     100.0%      0.0%      0.0%
 flops     5 x    32 x    13          76330741760     100.0%      0.0%      0.0%
 flops     6 x    32 x     6          78033715200     100.0%      0.0%      0.0%
 flops    13 x    32 x    13         396919857152     100.0%      0.0%      0.0%
 flops    17 x    32 x     6         473776128000     100.0%      0.0%      0.0%
 flops     6 x    32 x    17         473776128000     100.0%      0.0%      0.0%
 flops    17 x    32 x    17        2867176527872     100.0%      0.0%      0.0%
 flops inhomo. stacks                 42479274082     100.0%      0.0%      0.0%
 flops total                         4.922919E+12     100.0%      0.0%      0.0%
 flops max/rank                     27.131206E+09     100.0%      0.0%      0.0%
 matmuls inhomo. stacks                   1458564     100.0%      0.0%      0.0%
 matmuls total                          477091644     100.0%      0.0%      0.0%
 number of processed stacks              51149191     100.0%      0.0%      0.0%
 average stack size                                     9.3       0.0       0.0
 marketing flops                     4.926658E+12
 -------------------------------------------------------------------------------
 # multiplications                          11480
 max memory usage/rank             637.628416E+06
 # max total images/rank                        1
 # max 3D layers                                1
 # MPI messages exchanged               126463680
 MPI messages size (bytes):
  total size                         1.126439E+12
  min size                           0.000000E+00
  max size                          43.808000E+03
  average size                       8.907210E+03
 MPI breakdown and total messages size (bytes):
             size <=      128            80302152                   879104
       128 < size <=     8192             1693336               1554708616
      8192 < size <=    32768            34064192             738327529720
     32768 < size <=   131072            10404000             386597756160
    131072 < size <=  4194304                   0                        0
   4194304 < size <= 16777216                   0                        0
  16777216 < size                               0                        0
 -------------------------------------------------------------------------------

 MEMORY| Estimated peak process memory [MiB]                                 609

 -------------------------------------------------------------------------------
 ----                             MULTIGRID INFO                            ----
 -------------------------------------------------------------------------------
 count for grid        1:       29194399          cutoff [a.u.]          225.00
 count for grid        2:       13811048          cutoff [a.u.]           75.00
 count for grid        3:        9120112          cutoff [a.u.]           25.00
 count for grid        4:        5679929          cutoff [a.u.]            8.33
 total gridlevel count  :       57805488

 -------------------------------------------------------------------------------
 -                                                                             -
 -                         MESSAGE PASSING PERFORMANCE                         -
 -                                                                             -
 -------------------------------------------------------------------------------

 ROUTINE             CALLS      AVE VOLUME [Bytes]
 MP_Group             5388
 MP_Bcast             4081                1001097.
 MP_Allreduce        88871                    119.
 MP_Sync              3432
 MP_Alltoall        171923                 383669.
 MP_SendRecv         25980                 525499.
 MP_ISendRecv      3032970                  42311.
 MP_Wait           5245212
 MP_comm_split         172
 MP_ISend          1133264                  32344.
 MP_IRecv          1158232                  31732.
 MP_Recv              1952                  69912.
 MP_Memory          364020
 -------------------------------------------------------------------------------


 -------------------------------------------------------------------------------
 -                                                                             -
 -                           R E F E R E N C E S                               -
 -                                                                             -
 -------------------------------------------------------------------------------
 
 CP2K version 6.0 (Development Version), the CP2K developers group (2017).
 CP2K is freely available from https://www.cp2k.org/ .

 Schuett, Ole; Messmer, Peter; Hutter, Juerg; VandeVondele, Joost. 
 Electronic Structure Calculations on Graphics Processing Units, John Wiley & Sons, Ltd, 173-190 (2016). 
 GPU-Accelerated Sparse Matrix-Matrix Multiplication for Linear Scaling Density Functional Theory.
 http://dx.doi.org/10.1002/9781118670712.ch8


 Borstnik, U; VandeVondele, J; Weber, V; Hutter, J. 
 PARALLEL COMPUTING, 40 (5-6), 47-58 (2014). 
 Sparse matrix multiplication: The distributed block-compressed sparse
 row library.
 http://dx.doi.org/10.1016/j.parco.2014.03.012


 Hutter, J; Iannuzzi, M; Schiffmann, F; VandeVondele, J. 
 WILEY INTERDISCIPLINARY REVIEWS-COMPUTATIONAL MOLECULAR SCIENCE, 4 (1), 15-25 (2014). 
 CP2K: atomistic simulations of condensed matter systems.
 http://dx.doi.org/10.1002/wcms.1159


 Grimme, S; Ehrlich, S; Goerigk, L. 
 JOURNAL OF COMPUTATIONAL CHEMISTRY, 32, 1456 (2011). 
 Effect of the damping function in dispersion corrected density functional theory.
 http://dx.doi.org/10.1002/jcc.21759


 Guidon, M; Hutter, J; VandeVondele, J. 
 JOURNAL OF CHEMICAL THEORY AND COMPUTATION, 6 (8), 2348-2364 (2010). 
 Auxiliary Density Matrix Methods for Hartree-Fock Exchange Calculations.
 http://dx.doi.org/10.1021/ct1002225


 Grimme, S; Antony, J; Ehrlich, S; Krieg, H. 
 JOURNAL OF CHEMICAL PHYSICS, 132 (15), 154104 (2010). 
 A consistent and accurate ab initio parametrization of density
 functional dispersion correction (DFT-D) for the 94 elements H-Pu.
 http://dx.doi.org/10.1063/1.3382344


 Guidon, M; Hutter, J; VandeVondele, J. 
 JOURNAL OF CHEMICAL THEORY AND COMPUTATION, 5 (11), 3010-3021 (2009). 
 Robust Periodic Hartree-Fock Exchange for Large-Scale Simulations Using
 Gaussian Basis Sets.
 http://dx.doi.org/10.1021/ct900494g


 Guidon, M; Schiffmann, F; Hutter, J; VandeVondele, J. 
 JOURNAL OF CHEMICAL PHYSICS, 128 (21), 214104 (2008). 
 Ab initio molecular dynamics using hybrid density functionals.
 http://dx.doi.org/10.1063/1.2931945


 VandeVondele, J; Hutter, J. 
 JOURNAL OF CHEMICAL PHYSICS, 127 (11), 114105 (2007). 
 Gaussian basis sets for accurate calculations on molecular systems in
 gas and condensed phases.
 http://dx.doi.org/10.1063/1.2770708


 Genovese, L; Deutsch, T; Goedecker, S. 
 JOURNAL OF CHEMICAL PHYSICS, 127 (5), 054704 (2007). 
 Efficient and accurate three-dimensional Poisson solver for surface
 problems.
 http://dx.doi.org/10.1063/1.2754685


 Genovese, L; Deutsch, T; Neelov, A; Goedecker, S; Beylkin, G. 
 JOURNAL OF CHEMICAL PHYSICS, 125 (7), 074105 (2006). 
 Efficient solution of Poisson's equation with free boundary conditions.
 http://dx.doi.org/10.1063/1.2335442


 Krack, M. 
 THEORETICAL CHEMISTRY ACCOUNTS, 114 (1-3), 145-152 (2005). 
 Pseudopotentials for H to Kr optimized for gradient-corrected
 exchange-correlation functionals.
 http://dx.doi.org/10.1007/s00214-005-0655-y


 VandeVondele, J; Krack, M; Mohamed, F; Parrinello, M; Chassaing, T;
 Hutter, J. COMPUTER PHYSICS COMMUNICATIONS, 167 (2), 103-128 (2005). 
 QUICKSTEP: Fast and accurate density functional calculations using a
 mixed Gaussian and plane waves approach.
 http://dx.doi.org/10.1016/j.cpc.2004.12.014


 Frigo, M; Johnson, SG. 
 PROCEEDINGS OF THE IEEE, 93 (2), 216-231 (2005). 
 The design and implementation of FFTW3.
 http://dx.doi.org/10.1109/JPROC.2004.840301


 Iannuzzi, M; Chassaing, T; Wallman, T; Hutter, J. 
 CHIMIA, 59 (7-8), 499-503 (2005). 
 Ground and excited state density functional calculations with the
 Gaussian and augmented-plane-wave method.
 http://dx.doi.org/10.2533/000942905777676164


 Heyd, J; Scuseria, GE. 
 JOURNAL OF CHEMICAL PHYSICS, 120 (16), 7274-7280 (2004). 
 Assessment and validation of a screened Coulomb hybrid density
 functional.
 http://dx.doi.org/10.1063/1.1668634


 VandeVondele, J; Hutter, J. 
 JOURNAL OF CHEMICAL PHYSICS, 118 (10), 4365-4369 (2003). 
 An efficient orbital transformation method for electronic structure
 calculations.
 http://dx.doi.org/10.1063/1.1543154


 Hartwigsen, C; Goedecker, S; Hutter, J. 
 PHYSICAL REVIEW B, 58 (7), 3641-3662 (1998). 
 Relativistic separable dual-space Gaussian pseudopotentials from H to Rn.
 http://dx.doi.org/10.1103/PhysRevB.58.3641


 Lippert, G; Hutter, J; Parrinello, M. 
 MOLECULAR PHYSICS, 92 (3), 477-487 (1997). 
 A hybrid Gaussian and plane wave density functional scheme.
 http://dx.doi.org/10.1080/002689797170220


 Perdew, JP; Burke, K; Ernzerhof, M. 
 PHYSICAL REVIEW LETTERS, 77 (18), 3865-3868 (1996). 
 Generalized gradient approximation made simple.
 http://dx.doi.org/10.1103/PhysRevLett.77.3865


 Goedecker, S; Teter, M; Hutter, J. 
 PHYSICAL REVIEW B, 54 (3), 1703-1710 (1996). 
 Separable dual-space Gaussian pseudopotentials.
 http://dx.doi.org/10.1103/PhysRevB.54.1703


 -------------------------------------------------------------------------------
 -                                                                             -
 -                                T I M I N G                                  -
 -                                                                             -
 -------------------------------------------------------------------------------
 SUBROUTINE                       CALLS  ASD         SELF TIME        TOTAL TIME
                                MAXIMUM       AVERAGE  MAXIMUM  AVERAGE  MAXIMUM
 CP2K                                 1  1.0    0.136    0.150 1504.320 1504.321
 qs_energies                          1  2.0    0.000    0.000 1502.208 1502.209
 qs_energies_properties               1  3.0    0.000    0.000 1458.603 1458.604
 tddfpt                               1  4.0    0.000    0.001 1458.603 1458.604
 tddfpt_davidson_solver               1  5.0    0.004    0.006 1455.924 1455.924
 tddfpt_compute_Aop_evects           12  6.0    0.010    0.012 1437.138 1437.139
 integrate_v_rspace                2524  8.0   33.928  233.913  499.677  532.933
 tddfpt_apply_admm_correction       360  7.0    0.029    0.038  523.326  523.708
 tddfpt_apply_hfx                    12  7.0    0.011    0.013  434.722  434.724
 integrate_four_center              361  9.0    2.145    4.254  422.807  423.094
 tddft_hfx_matrix                   360  8.0    0.005    0.006  416.079  416.366
 rs_pw_transfer                   15892 10.0    0.254    0.362  376.433  390.864
 integrate_four_center_main         361 10.0    0.058    0.080  379.591  390.544
 integrate_four_center_bin        23826 11.0  379.533  390.484  379.533  390.484
 potential_pw2rs                   2524  9.0    0.144    0.235  255.154  291.844
 calculate_rho_elec                1448  8.0   15.896  112.227  261.930  261.961
 mp_alltoall_d11v                 62907 10.6  228.291  258.406  228.291  258.406
 rs_distribute_matrix              3972  9.0    0.447    3.319  214.946  247.819
 density_rs2pw                     1448  9.0    0.065    0.086  228.156  240.903
 tddfpt_apply_xc                    360  7.0    0.590    0.846  198.033  198.271
 mp_waitany                      399788 12.0  156.302  196.203  156.302  196.203
 pw_transfer                      18420  9.9    0.791    1.146  129.701  161.529
 fft_wrap_pw1pw2                  18420 10.9    0.149    0.217  128.909  160.650
 fft3d_ps                         18420 12.9   19.659   32.427  120.959  156.110
 qs_rho_update_rho                  363  7.0    0.004    0.006  155.963  155.973
 mp_alltoall_z22v                 18420 14.9   96.645  151.230   96.645  151.230
 mp_sum_d                          7473  8.9   58.751  149.233   58.751  149.233
 mp_waitall_1                   4913448 11.8  124.507  143.729  124.507  143.729
 qs_vxc_create                      722  8.0    0.012    0.017  142.940  143.315
 xc_vxc_pw_create                   722  9.0    1.060    1.392  142.929  143.302
 fft_wrap_pw1pw2_100               6484 11.8    3.042    6.870   89.979  123.541
 rs_pw_transfer_RS2PW_100          1442 11.0   10.317   18.456   91.886  122.450
 rs_pw_transfer_RS2PW_40           1442 11.0    5.446   10.239   38.265  119.346
 yz_to_x                           8678 14.0    1.809    2.674   69.253  115.818
 tddfpt_apply_coulomb               360  7.0    0.006    0.008  110.927  111.235
 xc_rho_set_and_dset_create         723 10.0    0.683    0.996   57.583  102.925
 pw_nn_compose_r                  12990  9.8   58.228   81.678   74.893  101.719
 rs_pw_transfer_PW2RS_20           2520 11.0   19.601   20.952   70.212   94.443
 xc_functional_eval                1446 11.0    0.009    0.015   33.706   73.266
 rs_pw_transfer_PW2RS_100          2520 11.0   23.951   38.996   48.323   58.788
 rs_pw_transfer_PW2RS_40           2520 11.0   10.549   20.357   42.047   57.248
 cp_dbcsr_sm_fm_multiply           4337  7.5    0.083    0.101   39.691   40.712
 rs_pw_transfer_RS2PW_20           1442 11.0    5.021    6.165   35.108   40.419
 rs_pw_transfer_PW2RS_10           2524 11.0    6.032    6.357   30.778   40.397
 xpbe_hole_t_c_lr_lsd_eval          722 12.0   17.689   38.761   17.689   38.761
 x_to_yz                           9742 13.9    2.546    4.185   31.747   36.838
 dbcsr_complete_redistribute      13622  9.3    0.794    0.973   35.524   36.535
 xwpbe_lsd_eval                     722 12.0   15.940   34.550   15.940   34.550
 mp_sync                           3432 10.9   21.858   34.545   21.858   34.545
 pw_poisson_solve                   361  8.0    0.547    0.842   30.518   30.645
 copy_dbcsr_to_fm                  5378  8.4    0.074    0.094   28.811   30.123
 -------------------------------------------------------------------------------

 The number of warnings for this run is : 1
 
 -------------------------------------------------------------------------------
  **** **** ******  **  PROGRAM ENDED AT                 2019-05-16 01:44:05.162
 ***** ** ***  *** **   PROGRAM RAN ON                              i21r02c03s11
 **    ****   ******    PROGRAM RAN BY                                   di52dem
 ***** **    ** ** **   PROGRAM PROCESS ID                                 14540
  **** **  *******  **  PROGRAM STOPPED IN      /gpfs/work/pr27sa/di52dem/TdPBE0
