 DBCSR| Multiplication driver                                               BLAS
 DBCSR| Multrec recursion limit                                              512
 DBCSR| Multiplication stack size                                           1000
 DBCSR| Maximum elements for images                                    UNLIMITED
 DBCSR| Multiplicative factor virtual images                                   1
 DBCSR| Multiplication size stacks                                             3
 DBCSR| Number of 3D layers                                               SINGLE
 DBCSR| Use MPI memory allocation                                              T
 DBCSR| Use RMA algorithm                                                      F
 DBCSR| Use Communication thread                                               T
 DBCSR| Communication thread load                                             87


  **** **** ******  **  PROGRAM STARTED AT               2018-12-18 18:05:16.738
 ***** ** ***  *** **   PROGRAM STARTED ON                          84324fee6dfa
 **    ****   ******    PROGRAM STARTED BY                              root ;-)
 ***** **    ** ** **   PROGRAM PROCESS ID                                  9460
  **** **  *******  **  PROGRAM STARTED IN /tmp/tmpypnb9ao9/test_repo/sandbox/tm
                                           p5u20j0wb/20181218-00001

 CP2K| version string:                                          CP2K version 5.1
 CP2K| source code revision number:                                    svn:18091
 CP2K| cp2kflags: libint fftw3 libxc parallel mpi3 scalapack libderiv_max_am1=5 
 CP2K|            libint_max_am=6
 CP2K| is freely available from                            https://www.cp2k.org/
 CP2K| Program compiled at                          Mon Jan 15 17:12:42 UTC 2018
 CP2K| Program compiled on                                       lgw01-amd64-018
 CP2K| Program compiled for                                Linux-x86_64-gfortran
 CP2K| Data directory path                                       /usr/share/cp2k
 CP2K| Input file name                                                 aiida.inp

 GLOBAL| Force Environment number                                              1
 GLOBAL| Basis set file name                                        BASIS_MOLOPT
 GLOBAL| Potential file name                                           POTENTIAL
 GLOBAL| MM Potential file name                                     MM_POTENTIAL
 GLOBAL| Coordinate file name                                   aiida.coords.xyz
 GLOBAL| Method name                                                        CP2K
 GLOBAL| Project name                                                      aiida
 GLOBAL| Preferred FFT library                                             FFTW3
 GLOBAL| Preferred diagonalization lib.                                       SL
 GLOBAL| Run type                                                        GEO_OPT
 GLOBAL| All-to-all communication in single precision                          F
 GLOBAL| FFTs using library dependent lengths                                  F
 GLOBAL| Global print level                                               MEDIUM
 GLOBAL| Total number of message passing processes                             1
 GLOBAL| Number of threads for this process                                    1
 GLOBAL| This output is from process                                           0
 GLOBAL| CPU model name :  Intel(R) Core(TM) i7-4790 CPU @ 3.60GHz

 MEMORY| system memory details [Kb]
 MEMORY|                        rank 0           min           max       average
 MEMORY| MemTotal             16373764      16373764      16373764      16373764
 MEMORY| MemFree               2778392       2778392       2778392       2778392
 MEMORY| Buffers                866464        866464        866464        866464
 MEMORY| Cached                4782332       4782332       4782332       4782332
 MEMORY| Slab                   567456        567456        567456        567456
 MEMORY| SReclaimable           400468        400468        400468        400468
 MEMORY| MemLikelyFree         8827656       8827656       8827656       8827656


 *** Fundamental physical constants (SI units) ***

 *** Literature: B. J. Mohr and B. N. Taylor,
 ***             CODATA recommended values of the fundamental physical
 ***             constants: 2006, Web Version 5.1
 ***             http://physics.nist.gov/constants

 Speed of light in vacuum [m/s]                             2.99792458000000E+08
 Magnetic constant or permeability of vacuum [N/A**2]       1.25663706143592E-06
 Electric constant or permittivity of vacuum [F/m]          8.85418781762039E-12
 Planck constant (h) [J*s]                                  6.62606896000000E-34
 Planck constant (h-bar) [J*s]                              1.05457162825177E-34
 Elementary charge [C]                                      1.60217648700000E-19
 Electron mass [kg]                                         9.10938215000000E-31
 Electron g factor [ ]                                     -2.00231930436220E+00
 Proton mass [kg]                                           1.67262163700000E-27
 Fine-structure constant                                    7.29735253760000E-03
 Rydberg constant [1/m]                                     1.09737315685270E+07
 Avogadro constant [1/mol]                                  6.02214179000000E+23
 Boltzmann constant [J/K]                                   1.38065040000000E-23
 Atomic mass unit [kg]                                      1.66053878200000E-27
 Bohr radius [m]                                            5.29177208590000E-11

 *** Conversion factors ***

 [u] -> [a.u.]                                              1.82288848426455E+03
 [Angstrom] -> [Bohr] = [a.u.]                              1.88972613288564E+00
 [a.u.] = [Bohr] -> [Angstrom]                              5.29177208590000E-01
 [a.u.] -> [s]                                              2.41888432650478E-17
 [a.u.] -> [fs]                                             2.41888432650478E-02
 [a.u.] -> [J]                                              4.35974393937059E-18
 [a.u.] -> [N]                                              8.23872205491840E-08
 [a.u.] -> [K]                                              3.15774647902944E+05
 [a.u.] -> [kJ/mol]                                         2.62549961709828E+03
 [a.u.] -> [kcal/mol]                                       6.27509468713739E+02
 [a.u.] -> [Pa]                                             2.94210107994716E+13
 [a.u.] -> [bar]                                            2.94210107994716E+08
 [a.u.] -> [atm]                                            2.90362800883016E+08
 [a.u.] -> [eV]                                             2.72113838565563E+01
 [a.u.] -> [Hz]                                             6.57968392072181E+15
 [a.u.] -> [1/cm] (wave numbers)                            2.19474631370540E+05
 [a.u./Bohr**2] -> [1/cm]                                   5.14048714338585E+03
 

 CELL_TOP| Volume [angstrom^3]:                                           75.795
 CELL_TOP| Vector a [angstrom     4.000     0.000     0.000    |a| =       4.000
 CELL_TOP| Vector b [angstrom     0.000     4.000     0.000    |b| =       4.000
 CELL_TOP| Vector c [angstrom     0.000     0.000     4.737    |c| =       4.737
 CELL_TOP| Angle (b,c), alpha [degree]:                                   90.000
 CELL_TOP| Angle (a,c), beta  [degree]:                                   90.000
 CELL_TOP| Angle (a,b), gamma [degree]:                                   90.000
 CELL_TOP| Numerically orthorhombic:                                         YES

 GENERATE|  Preliminary Number of Bonds generated:                             0
 GENERATE|  Achieved consistency in connectivity generation.

 CELL| Volume [angstrom^3]:                                               75.795
 CELL| Vector a [angstrom]:       4.000     0.000     0.000    |a| =       4.000
 CELL| Vector b [angstrom]:       0.000     4.000     0.000    |b| =       4.000
 CELL| Vector c [angstrom]:       0.000     0.000     4.737    |c| =       4.737
 CELL| Angle (b,c), alpha [degree]:                                       90.000
 CELL| Angle (a,c), beta  [degree]:                                       90.000
 CELL| Angle (a,b), gamma [degree]:                                       90.000
 CELL| Numerically orthorhombic:                                             YES

 CELL_REF| Volume [angstrom^3]:                                           75.795
 CELL_REF| Vector a [angstrom     4.000     0.000     0.000    |a| =       4.000
 CELL_REF| Vector b [angstrom     0.000     4.000     0.000    |b| =       4.000
 CELL_REF| Vector c [angstrom     0.000     0.000     4.737    |c| =       4.737
 CELL_REF| Angle (b,c), alpha [degree]:                                   90.000
 CELL_REF| Angle (a,c), beta  [degree]:                                   90.000
 CELL_REF| Angle (a,b), gamma [degree]:                                   90.000
 CELL_REF| Numerically orthorhombic:                                         YES

 *******************************************************************************
 *******************************************************************************
 **                                                                           **
 **     #####                         ##              ##                      **
 **    ##   ##            ##          ##              ##                      **
 **   ##     ##                       ##            ######                    **
 **   ##     ##  ##   ##  ##   #####  ##  ##   ####   ##    #####    #####    **
 **   ##     ##  ##   ##  ##  ##      ## ##   ##      ##   ##   ##  ##   ##   **
 **   ##  ## ##  ##   ##  ##  ##      ####     ###    ##   ######   ######    **
 **    ##  ###   ##   ##  ##  ##      ## ##      ##   ##   ##       ##        **
 **     #######   #####   ##   #####  ##  ##  ####    ##    #####   ##        **
 **           ##                                                    ##        **
 **                                                                           **
 **                                                ... make the atoms dance   **
 **                                                                           **
 **            Copyright (C) by CP2K developers group (2000 - 2017)           **
 **                                                                           **
 *******************************************************************************

 DFT| Spin restricted Kohn-Sham (RKS) calculation                            RKS
 DFT| Multiplicity                                                             1
 DFT| Number of spin states                                                    1
 DFT| Charge                                                                   0
 DFT| Self-interaction correction (SIC)                                       NO
 DFT| Cutoffs: density                                              1.000000E-10
 DFT|          gradient                                             1.000000E-10
 DFT|          tau                                                  1.000000E-10
 DFT|          cutoff_smoothing_range                               0.000000E+00
 DFT| XC density smoothing                                                  NONE
 DFT| XC derivatives                                                          PW
 FUNCTIONAL| ROUTINE=NEW
 FUNCTIONAL| PADE:
 FUNCTIONAL| S. Goedecker, M. Teter and J. Hutter, Phys. Rev. B 54, 1703 (1996) 

 QS| Method:                                                                 GPW
 QS| Density plane wave grid type                        NON-SPHERICAL FULLSPACE
 QS| Number of grid levels:                                                    4
 QS| Density cutoff [a.u.]:                                                140.0
 QS| Multi grid cutoff [a.u.]: 1) grid level                               140.0
 QS|                           2) grid level                                46.7
 QS|                           3) grid level                                15.6
 QS|                           4) grid level                                 5.2
 QS| Grid level progression factor:                                          3.0
 QS| Relative density cutoff [a.u.]:                                        15.0
 QS| Consistent realspace mapping and integration 
 QS| Interaction thresholds: eps_pgf_orb:                                1.0E-06
 QS|                         eps_filter_matrix:                          0.0E+00
 QS|                         eps_core_charge:                            1.0E-14
 QS|                         eps_rho_gspace:                             1.0E-12
 QS|                         eps_rho_rspace:                             1.0E-12
 QS|                         eps_gvg_rspace:                             1.0E-06
 QS|                         eps_ppl:                                    1.0E-02
 QS|                         eps_ppnl:                                   1.0E-08


 ATOMIC KIND INFORMATION

  1. Atomic kind: H                                     Number of atoms:       2

     Orbital Basis Set                                        DZVP-MOLOPT-SR-GTH

       Number of orbital shell sets:                                           1
       Number of orbital shells:                                               3
       Number of primitive Cartesian functions:                                5
       Number of Cartesian basis functions:                                    5
       Number of spherical basis functions:                                    5
       Norm type:                                                              2

       Normalised Cartesian orbitals:

                        Set   Shell   Orbital            Exponent    Coefficient

                          1       1    2s               10.068468      -0.133023
                                                         2.680223      -0.177618
                                                         0.791502      -0.258419
                                                         0.239116      -0.107525
                                                         0.082193      -0.014019

                          1       2    3s               10.068468       0.344673
                                                         2.680223       1.819821
                                                         0.791502      -0.999069
                                                         0.239116       0.017430
                                                         0.082193       0.082660

                          1       3    3px              10.068468       0.155326
                                                         2.680223       0.367157
                                                         0.791502       0.311480
                                                         0.239116       0.080105
                                                         0.082193       0.033440
                          1       3    3py              10.068468       0.155326
                                                         2.680223       0.367157
                                                         0.791502       0.311480
                                                         0.239116       0.080105
                                                         0.082193       0.033440
                          1       3    3pz              10.068468       0.155326
                                                         2.680223       0.367157
                                                         0.791502       0.311480
                                                         0.239116       0.080105
                                                         0.082193       0.033440

     GTH Potential information for                                    GTH-LDA-q1

       Description:                       Goedecker-Teter-Hutter pseudopotential
                                           Goedecker et al., PRB 54, 1703 (1996)
                                          Hartwigsen et al., PRB 58, 3641 (1998)
                                                      Krack, TCA 114, 145 (2005)

       Gaussian exponent of the core charge distribution:              12.500000
       Electronic configuration (s p d ...):                                   1

       Parameters of the local part of the GTH pseudopotential:

                          rloc        C1          C2          C3          C4
                        0.200000   -4.180237    0.725075


 MOLECULE KIND INFORMATION


 All atoms are their own molecule, skipping detailed information


 TOTAL NUMBERS AND MAXIMUM NUMBERS

  Total number of            - Atomic kinds:                                   1
                             - Atoms:                                          2
                             - Shell sets:                                     2
                             - Shells:                                         6
                             - Primitive Cartesian functions:                 10
                             - Cartesian basis functions:                     10
                             - Spherical basis functions:                     10

  Maximum angular momentum of- Orbital basis functions:                        1
                             - Local part of the GTH pseudopotential:          2


 MODULE QUICKSTEP:  ATOMIC COORDINATES IN angstrom

  Atom  Kind  Element       X           Y           Z          Z(eff)       Mass

       1     1 H    1    2.000000    2.000000    2.737166      1.00       1.0079
       2     1 H    1    2.000000    2.000000    2.000000      1.00       1.0079




 SCF PARAMETERS         Density guess:                                    ATOMIC
                        --------------------------------------------------------
                        max_scf:                                              50
                        max_scf_history:                                       0
                        max_diis:                                              4
                        --------------------------------------------------------
                        eps_scf:                                        1.00E-05
                        eps_scf_history:                                0.00E+00
                        eps_diis:                                       1.00E-01
                        eps_eigval:                                     1.00E-05
                        --------------------------------------------------------
                        level_shift [a.u.]:                                 0.00
                        --------------------------------------------------------
                        Mixing method:                           DIRECT_P_MIXING
                        --------------------------------------------------------
                        No outer SCF

 PW_GRID| Information for grid number                                          1
 PW_GRID| Cutoff [a.u.]                                                    280.0
 PW_GRID| spherical cutoff:                                                   NO
 PW_GRID|   Bounds   1            -30      29                Points:          60
 PW_GRID|   Bounds   2            -30      29                Points:          60
 PW_GRID|   Bounds   3            -36      35                Points:          72
 PW_GRID| Volume element (a.u.^3)  0.1973E-02     Volume (a.u.^3)       511.4877
 PW_GRID| Grid span                                                    FULLSPACE

 PW_GRID| Information for grid number                                          2
 PW_GRID| Cutoff [a.u.]                                                    140.0
 PW_GRID| spherical cutoff:                                                   NO
 PW_GRID|   Bounds   1            -22      22                Points:          45
 PW_GRID|   Bounds   2            -22      22                Points:          45
 PW_GRID|   Bounds   3            -24      23                Points:          48
 PW_GRID| Volume element (a.u.^3)  0.5262E-02     Volume (a.u.^3)       511.4877
 PW_GRID| Grid span                                                    FULLSPACE

 PW_GRID| Information for grid number                                          3
 PW_GRID| Cutoff [a.u.]                                                     46.7
 PW_GRID| spherical cutoff:                                                   NO
 PW_GRID|   Bounds   1            -12      11                Points:          24
 PW_GRID|   Bounds   2            -12      11                Points:          24
 PW_GRID|   Bounds   3            -13      13                Points:          27
 PW_GRID| Volume element (a.u.^3)  0.3289E-01     Volume (a.u.^3)       511.4877
 PW_GRID| Grid span                                                    FULLSPACE

 PW_GRID| Information for grid number                                          4
 PW_GRID| Cutoff [a.u.]                                                     15.6
 PW_GRID| spherical cutoff:                                                   NO
 PW_GRID|   Bounds   1             -7       7                Points:          15
 PW_GRID|   Bounds   2             -7       7                Points:          15
 PW_GRID|   Bounds   3             -7       7                Points:          15
 PW_GRID| Volume element (a.u.^3)  0.1516         Volume (a.u.^3)       511.4877
 PW_GRID| Grid span                                                    FULLSPACE

 PW_GRID| Information for grid number                                          5
 PW_GRID| Cutoff [a.u.]                                                      5.2
 PW_GRID| spherical cutoff:                                                   NO
 PW_GRID|   Bounds   1             -4       3                Points:           8
 PW_GRID|   Bounds   2             -4       3                Points:           8
 PW_GRID|   Bounds   3             -4       4                Points:           9
 PW_GRID| Volume element (a.u.^3)  0.8880         Volume (a.u.^3)       511.4877
 PW_GRID| Grid span                                                    FULLSPACE

 POISSON| Solver                                          Martyna-Tuckerman (MT)
 POISSON| MT| Alpha                                                        7.000
 POISSON| MT| Relative cutoff                                                2.0
 POISSON| Periodicity                                                       NONE

 RS_GRID| Information for grid number                                          2
 RS_GRID|   Bounds   1            -22      22                Points:          45
 RS_GRID|   Bounds   2            -22      22                Points:          45
 RS_GRID|   Bounds   3            -24      23                Points:          48

 RS_GRID| Information for grid number                                          3
 RS_GRID|   Bounds   1            -12      11                Points:          24
 RS_GRID|   Bounds   2            -12      11                Points:          24
 RS_GRID|   Bounds   3            -13      13                Points:          27

 RS_GRID| Information for grid number                                          4
 RS_GRID|   Bounds   1             -7       7                Points:          15
 RS_GRID|   Bounds   2             -7       7                Points:          15
 RS_GRID|   Bounds   3             -7       7                Points:          15

 RS_GRID| Information for grid number                                          5
 RS_GRID|   Bounds   1             -4       3                Points:           8
 RS_GRID|   Bounds   2             -4       3                Points:           8
 RS_GRID|   Bounds   3             -4       4                Points:           9

 DISTRIBUTION OF THE PARTICLES (ROWS)
              Process row      Number of particles         Number of matrix rows
                        0                        2                            -1
                      Sum                        2                            -1

 DISTRIBUTION OF THE PARTICLES (COLUMNS)
              Process col      Number of particles      Number of matrix columns
                        0                        2                            -1
                      Sum                        2                            -1

 *******************************************************************************
 ***                     STARTING GEOMETRY OPTIMIZATION                      ***
 ***                                   BFGS                                  ***
 *******************************************************************************

 DISTRIBUTION OF THE NEIGHBOR LISTS
              Total number of particle pairs:                                444
              Total number of matrix elements:                             11100
              Average number of particle pairs:                              444
              Maximum number of particle pairs:                              444
              Average number of matrix element:                            11100
              Maximum number of matrix elements:                           11100


 DISTRIBUTION OF THE OVERLAP MATRIX
              Number  of non-zero blocks:                                      3
              Percentage non-zero blocks:                                 100.00
              Average number of blocks per CPU:                                3
              Maximum number of blocks per CPU:                                3
              Average number of matrix elements per CPU:                      85
              Maximum number of matrix elements per CPU:                      85

 Number of electrons:                                                          2
 Number of occupied orbitals:                                                  1
 Number of molecular orbitals:                                                 1

 Number of orbital functions:                                                 10
 Number of independent orbital functions:                                     10

 Extrapolation method: initial_guess

 Atomic guess: The first density matrix is obtained in terms of atomic orbitals
               and electronic configurations assigned to each atomic kind

 Guess for atomic kind: H

 Electronic structure
    Total number of core electrons                                          0.00
    Total number of valence electrons                                       1.00
    Total number of electrons                                               1.00
    Multiplicity                                                   not specified
    S      1.00


 *******************************************************************************
                  Iteration          Convergence                     Energy [au]
 *******************************************************************************
                          1        0.250941E-02                  -0.375252439250
                          2        0.570686E-04                  -0.375254289096
                          3        0.832213E-09                  -0.375254290053

 Energy components [Hartree]           Total Energy ::           -0.375254290053
                                        Band Energy ::           -0.076313317586
                                     Kinetic Energy ::            0.771359175731
                                   Potential Energy ::           -1.146613465784
                                      Virial (-V/T) ::            1.486484509239
                                        Core Energy ::           -0.456086259369
                                          XC Energy ::           -0.314218638424
                                     Coulomb Energy ::            0.395050607740
                       Total Pseudopotential Energy ::           -1.238480442282
                       Local Pseudopotential Energy ::           -1.238480442282
                    Nonlocal Pseudopotential Energy ::            0.000000000000
                                        Confinement ::            0.110350071812

 Orbital energies  State     L     Occupation   Energy[a.u.]          Energy[eV]

                       1     0          1.000      -0.076313           -2.076591


 Total Electron Density at R=0:                                         0.425028
 Re-scaling the density matrix to get the right number of electrons
                  # Electrons              Trace(P)               Scaling factor
                            2                 2.041                        0.980


 SCF WAVEFUNCTION OPTIMIZATION

  Step     Update method      Time    Convergence         Total energy    Change
  ------------------------------------------------------------------------------
     1 P_Mix/Diag. 0.40E+00    0.1     0.56441762        -0.8780092667 -8.78E-01
     2 P_Mix/Diag. 0.40E+00    0.0     0.33947084        -0.9829664279 -1.05E-01
     3 P_Mix/Diag. 0.40E+00    0.0     0.20413306        -1.0458577136 -6.29E-02
     4 P_Mix/Diag. 0.40E+00    0.0     0.12272585        -1.0835664220 -3.77E-02
     5 P_Mix/Diag. 0.40E+00    0.0     0.07377093        -1.1061834100 -2.26E-02
     6 DIIS/Diag.  0.44E-03    0.0     0.04443477        -1.1197509553 -1.36E-02
     7 DIIS/Diag.  0.14E-05    0.0     0.00000149        -1.1400990298 -2.03E-02

  *** SCF run converged in     7 steps ***


  Electronic density on regular grids:         -1.9999999995        0.0000000005
  Core density on regular grids:                1.9999999999       -0.0000000001
  Total charge density on r-space grids:        0.0000000005
  Total charge density g-space grids:           0.0000000005

  Overlap energy of the core charge distribution:               0.00000060512959
  Self energy of the core charge distribution:                 -2.82094791773878
  Core Hamiltonian energy:                                      1.02804668930180
  Hartree energy:                                               1.32660123197378
  Exchange-correlation energy:                                 -0.67379963845983

  Total energy:                                                -1.14009902979345

 !-----------------------------------------------------------------------------!
                     Mulliken Population Analysis

 #  Atom  Element  Kind  Atomic population                           Net charge
       1     H        1          1.000000                             -0.000000
       2     H        1          1.000000                              0.000000
 # Total charge                              2.000000                  0.000000

 !-----------------------------------------------------------------------------!

 !-----------------------------------------------------------------------------!
                           Hirshfeld Charges

  #Atom  Element  Kind  Ref Charge     Population                    Net charge
      1       H      1       1.000          0.928                         0.072
      2       H      1       1.000          0.928                         0.072

  Total Charge                                                            0.143
 !-----------------------------------------------------------------------------!

 ENERGY| Total FORCE_EVAL ( QS ) energy (a.u.):               -1.140099029792967


 --------  Informations at step =     0 ------------
  Optimization Method        =                 BFGS
  Total Energy               =        -1.1400990298
  Used time                  =                0.444
 ---------------------------------------------------

 --------------------------
 OPTIMIZATION STEP:      1
 --------------------------

 DISTRIBUTION OF THE NEIGHBOR LISTS
              Total number of particle pairs:                                444
              Total number of matrix elements:                             11100
              Average number of particle pairs:                              444
              Maximum number of particle pairs:                              444
              Average number of matrix element:                            11100
              Maximum number of matrix elements:                           11100


 DISTRIBUTION OF THE OVERLAP MATRIX
              Number  of non-zero blocks:                                      3
              Percentage non-zero blocks:                                 100.00
              Average number of blocks per CPU:                                3
              Maximum number of blocks per CPU:                                3
              Average number of matrix elements per CPU:                      85
              Maximum number of matrix elements per CPU:                      85

 Number of electrons:                                                          2
 Number of occupied orbitals:                                                  1
 Number of molecular orbitals:                                                 1

 Number of orbital functions:                                                 10
 Number of independent orbital functions:                                     10

 Extrapolation method: PS Nth order


 SCF WAVEFUNCTION OPTIMIZATION

  Step     Update method      Time    Convergence         Total energy    Change
  ------------------------------------------------------------------------------
     1 P_Mix/Diag. 0.40E+00    0.0     0.00002739        -1.1400997227 -1.14E+00
     2 P_Mix/Diag. 0.40E+00    0.0     0.00001689        -1.1400997263 -3.58E-09
     3 DIIS/Diag.  0.98E-06    0.0     0.00001083        -1.1400997285 -2.17E-09
     4 DIIS/Diag.  0.65E-07    0.0     0.00000003        -1.1400997318 -3.30E-09

  *** SCF run converged in     4 steps ***


  Electronic density on regular grids:         -1.9999999994        0.0000000006
  Core density on regular grids:                1.9999999999       -0.0000000001
  Total charge density on r-space grids:        0.0000000005
  Total charge density g-space grids:           0.0000000005

  Overlap energy of the core charge distribution:               0.00000062838383
  Self energy of the core charge distribution:                 -2.82094791773878
  Core Hamiltonian energy:                                      1.02830365406718
  Hartree energy:                                               1.32650200634641
  Exchange-correlation energy:                                 -0.67395810283637

  Total energy:                                                -1.14009973177774

 !-----------------------------------------------------------------------------!
                     Mulliken Population Analysis

 #  Atom  Element  Kind  Atomic population                           Net charge
       1     H        1          1.000000                              0.000000
       2     H        1          1.000000                             -0.000000
 # Total charge                              2.000000                 -0.000000

 !-----------------------------------------------------------------------------!

 !-----------------------------------------------------------------------------!
                           Hirshfeld Charges

  #Atom  Element  Kind  Ref Charge     Population                    Net charge
      1       H      1       1.000          0.928                         0.072
      2       H      1       1.000          0.928                         0.072

  Total Charge                                                            0.143
 !-----------------------------------------------------------------------------!

 ENERGY| Total FORCE_EVAL ( QS ) energy (a.u.):               -1.140099731777805


 --------  Informations at step =     1 ------------
  Optimization Method        =                 BFGS
  Total Energy               =        -1.1400997318
  Real energy change         =        -0.0000007020
  Predicted change in energy =        -0.0000008055
  Scaling factor             =         0.0000000000
  Step size                  =         0.0010035581
  Trust radius               =         0.4724315332
  Decrease in energy         =                  YES
  Used time                  =                0.264

  Convergence check :
  Max. step size             =         0.0010035581
  Conv. limit for step size  =         0.0030000000
  Convergence in step size   =                  YES
  RMS step size              =         0.0005794046
  Conv. limit for RMS step   =         0.0015000000
  Convergence in RMS step    =                  YES
  Max. gradient              =         0.0001030266
  Conv. limit for gradients  =         0.0004500000
  Conv. in gradients         =                  YES
  RMS gradient               =         0.0000594824
  Conv. limit for RMS grad.  =         0.0003000000
  Conv. in RMS gradients     =                  YES
 ---------------------------------------------------

 *******************************************************************************
 ***                    GEOMETRY OPTIMIZATION COMPLETED                      ***
 *******************************************************************************

                    Reevaluating energy at the minimum

 DISTRIBUTION OF THE NEIGHBOR LISTS
              Total number of particle pairs:                                444
              Total number of matrix elements:                             11100
              Average number of particle pairs:                              444
              Maximum number of particle pairs:                              444
              Average number of matrix element:                            11100
              Maximum number of matrix elements:                           11100


 DISTRIBUTION OF THE OVERLAP MATRIX
              Number  of non-zero blocks:                                      3
              Percentage non-zero blocks:                                 100.00
              Average number of blocks per CPU:                                3
              Maximum number of blocks per CPU:                                3
              Average number of matrix elements per CPU:                      85
              Maximum number of matrix elements per CPU:                      85

 Number of electrons:                                                          2
 Number of occupied orbitals:                                                  1
 Number of molecular orbitals:                                                 1

 Number of orbital functions:                                                 10
 Number of independent orbital functions:                                     10

 Extrapolation method: PS Nth order


 SCF WAVEFUNCTION OPTIMIZATION

  Step     Update method      Time    Convergence         Total energy    Change
  ------------------------------------------------------------------------------
     1 P_Mix/Diag. 0.40E+00    0.0     0.00002739        -1.1400997227 -1.14E+00
     2 P_Mix/Diag. 0.40E+00    0.0     0.00001689        -1.1400997263 -3.58E-09
     3 DIIS/Diag.  0.98E-06    0.0     0.00001083        -1.1400997285 -2.17E-09
     4 DIIS/Diag.  0.65E-07    0.0     0.00000003        -1.1400997318 -3.30E-09

  *** SCF run converged in     4 steps ***


  Electronic density on regular grids:         -1.9999999994        0.0000000006
  Core density on regular grids:                1.9999999999       -0.0000000001
  Total charge density on r-space grids:        0.0000000005
  Total charge density g-space grids:           0.0000000005

  Overlap energy of the core charge distribution:               0.00000062838383
  Self energy of the core charge distribution:                 -2.82094791773878
  Core Hamiltonian energy:                                      1.02830363216511
  Hartree energy:                                               1.32650201626973
  Exchange-correlation energy:                                 -0.67395809085770

  Total energy:                                                -1.14009973177782

 !-----------------------------------------------------------------------------!
                     Mulliken Population Analysis

 #  Atom  Element  Kind  Atomic population                           Net charge
       1     H        1          1.000000                              0.000000
       2     H        1          1.000000                             -0.000000
 # Total charge                              2.000000                  0.000000

 !-----------------------------------------------------------------------------!

 !-----------------------------------------------------------------------------!
                           Hirshfeld Charges

  #Atom  Element  Kind  Ref Charge     Population                    Net charge
      1       H      1       1.000          0.928                         0.072
      2       H      1       1.000          0.928                         0.072

  Total Charge                                                            0.143
 !-----------------------------------------------------------------------------!

 ENERGY| Total FORCE_EVAL ( QS ) energy (a.u.):               -1.140099731777819


 -------------------------------------------------------------------------------
 -                                                                             -
 -                                DBCSR STATISTICS                             -
 -                                                                             -
 -------------------------------------------------------------------------------
 COUNTER                                    TOTAL       BLAS       SMM       ACC
 flops     5 x     1 x     5                  200     100.0%      0.0%      0.0%
 flops     5 x     5 x     1                 2850     100.0%      0.0%      0.0%
 flops inhomo. stacks                           0       0.0%      0.0%      0.0%
 flops total                         3.050000E+03     100.0%      0.0%      0.0%
 flops max/rank                      3.050000E+03     100.0%      0.0%      0.0%
 matmuls inhomo. stacks                         0       0.0%      0.0%      0.0%
 matmuls total                                 61     100.0%      0.0%      0.0%
 number of processed stacks                    20     100.0%      0.0%      0.0%
 average stack size                                     3.0       0.0       0.0
 marketing flops                     4.000000E+03
 -------------------------------------------------------------------------------
 # multiplications                             20
 max memory usage/rank              99.934208E+06
 # max total images/rank                        1
 # max 3D layers                                1
 # MPI messages exchanged                       0
 MPI messages size (bytes):
  total size                         0.000000E+00
  min size                           0.000000E+00
  max size                           0.000000E+00
  average size                       0.000000E+00
 MPI breakdown and total messages size (bytes):
             size <=      128                   0                        0
       128 < size <=     8192                   0                        0
      8192 < size <=    32768                   0                        0
     32768 < size <=   131072                   0                        0
    131072 < size <=  4194304                   0                        0
   4194304 < size <= 16777216                   0                        0
  16777216 < size                               0                        0
 -------------------------------------------------------------------------------

 MEMORY| Estimated peak process memory [MiB]                                  96

 -------------------------------------------------------------------------------
 ----                             MULTIGRID INFO                            ----
 -------------------------------------------------------------------------------
 count for grid        1:            978          cutoff [a.u.]          140.00
 count for grid        2:            846          cutoff [a.u.]           46.67
 count for grid        3:           1521          cutoff [a.u.]           15.56
 count for grid        4:           2778          cutoff [a.u.]            5.19
 total gridlevel count  :           6123

 -------------------------------------------------------------------------------
 -                                                                             -
 -                         MESSAGE PASSING PERFORMANCE                         -
 -                                                                             -
 -------------------------------------------------------------------------------

 ROUTINE             CALLS      AVE VOLUME [Bytes]
 MP_Group               37
 MP_Bcast               19                      5.
 MP_Allreduce          276                     16.
 MP_Sync                 4
 MP_Alltoall           566                    394.
 MP_Wait               480
 MP_ISend               80                     41.
 MP_IRecv               80                     41.
 MP_Memory             802
 -------------------------------------------------------------------------------


 -------------------------------------------------------------------------------
 -                                                                             -
 -                           R E F E R E N C E S                               -
 -                                                                             -
 -------------------------------------------------------------------------------
 
 CP2K version 5.1, the CP2K developers group (2017).
 CP2K is freely available from https://www.cp2k.org/ .

 Schuett, Ole; Messmer, Peter; Hutter, Juerg; VandeVondele, Joost. 
 Electronic Structure Calculations on Graphics Processing Units, John Wiley & Sons, Ltd, 173-190 (2016). 
 GPU-Accelerated Sparse Matrix-Matrix Multiplication for Linear Scaling Density Functional Theory.
 http://dx.doi.org/10.1002/9781118670712.ch8


 Borstnik, U; VandeVondele, J; Weber, V; Hutter, J. 
 PARALLEL COMPUTING, 40 (5-6), 47-58 (2014). 
 Sparse matrix multiplication: The distributed block-compressed sparse
 row library.
 http://dx.doi.org/10.1016/j.parco.2014.03.012


 Hutter, J; Iannuzzi, M; Schiffmann, F; VandeVondele, J. 
 WILEY INTERDISCIPLINARY REVIEWS-COMPUTATIONAL MOLECULAR SCIENCE, 4 (1), 15-25 (2014). 
 CP2K: atomistic simulations of condensed matter systems.
 http://dx.doi.org/10.1002/wcms.1159


 VandeVondele, J; Hutter, J. 
 JOURNAL OF CHEMICAL PHYSICS, 127 (11), 114105 (2007). 
 Gaussian basis sets for accurate calculations on molecular systems in
 gas and condensed phases.
 http://dx.doi.org/10.1063/1.2770708


 Krack, M. 
 THEORETICAL CHEMISTRY ACCOUNTS, 114 (1-3), 145-152 (2005). 
 Pseudopotentials for H to Kr optimized for gradient-corrected
 exchange-correlation functionals.
 http://dx.doi.org/10.1007/s00214-005-0655-y


 VandeVondele, J; Krack, M; Mohamed, F; Parrinello, M; Chassaing, T;
 Hutter, J. COMPUTER PHYSICS COMMUNICATIONS, 167 (2), 103-128 (2005). 
 QUICKSTEP: Fast and accurate density functional calculations using a
 mixed Gaussian and plane waves approach.
 http://dx.doi.org/10.1016/j.cpc.2004.12.014


 Frigo, M; Johnson, SG. 
 PROCEEDINGS OF THE IEEE, 93 (2), 216-231 (2005). 
 The design and implementation of FFTW3.
 http://dx.doi.org/10.1109/JPROC.2004.840301


 Martyna, GJ; Tuckerman, ME. 
 JOURNAL OF CHEMICAL PHYSICS, 110 (6), 2810-2821 (1999). 
 A reciprocal space based method for treating long range interactions in
 ab initio and force-field-based calculations in clusters.
 http://dx.doi.org/10.1063/1.477923


 Hartwigsen, C; Goedecker, S; Hutter, J. 
 PHYSICAL REVIEW B, 58 (7), 3641-3662 (1998). 
 Relativistic separable dual-space Gaussian pseudopotentials from H to Rn.
 http://dx.doi.org/10.1103/PhysRevB.58.3641


 Lippert, G; Hutter, J; Parrinello, M. 
 MOLECULAR PHYSICS, 92 (3), 477-487 (1997). 
 A hybrid Gaussian and plane wave density functional scheme.
 http://dx.doi.org/10.1080/002689797170220


 Goedecker, S; Teter, M; Hutter, J. 
 PHYSICAL REVIEW B, 54 (3), 1703-1710 (1996). 
 Separable dual-space Gaussian pseudopotentials.
 http://dx.doi.org/10.1103/PhysRevB.54.1703


 -------------------------------------------------------------------------------
 -                                                                             -
 -                                T I M I N G                                  -
 -                                                                             -
 -------------------------------------------------------------------------------
 SUBROUTINE                       CALLS  ASD         SELF TIME        TOTAL TIME
                                MAXIMUM       AVERAGE  MAXIMUM  AVERAGE  MAXIMUM
 CP2K                                 1  1.0    0.002    0.002    0.992    0.992
 cp_geo_opt                           1  2.0    0.000    0.000    0.932    0.932
 geoopt_bfgs                          1  3.0    0.000    0.000    0.932    0.932
 cp_eval_at                           3  4.0    0.000    0.000    0.930    0.930
 qs_energies                          3  5.7    0.000    0.000    0.850    0.850
 scf_env_do_scf                       3  6.7    0.000    0.000    0.733    0.733
 scf_env_do_scf_inner_loop           15  7.7    0.001    0.001    0.732    0.732
 qs_forces                            2  5.0    0.000    0.000    0.707    0.707
 rebuild_ks_matrix                   17  9.4    0.000    0.000    0.448    0.448
 qs_ks_build_kohn_sham_matrix        17 10.4    0.001    0.001    0.448    0.448
 qs_rho_update_rho                   18  8.8    0.000    0.000    0.403    0.403
 calculate_rho_elec                  18  9.8    0.292    0.292    0.403    0.403
 qs_ks_update_qs_env                 15  8.7    0.000    0.000    0.390    0.390
 sum_up_and_integrate                17 11.4    0.001    0.001    0.301    0.301
 integrate_v_rspace                  17 12.4    0.247    0.247    0.300    0.300
 pw_transfer                        213 12.7    0.005    0.005    0.221    0.221
 fft_wrap_pw1pw2                    179 13.8    0.001    0.001    0.212    0.212
 fft_wrap_pw1pw2_140                 73 14.2    0.008    0.008    0.178    0.178
 fft3d_s                            180 15.7    0.128    0.128    0.144    0.144
 density_rs2pw                       18 10.8    0.000    0.000    0.111    0.111
 init_scf_run                         3  6.7    0.000    0.000    0.077    0.077
 scf_env_initial_rho_setup            3  7.7    0.000    0.000    0.076    0.076
 qs_ks_update_qs_env_forces           2  6.0    0.000    0.000    0.059    0.059
 qs_vxc_create                       17 11.4    0.000    0.000    0.055    0.055
 xc_vxc_pw_create                    17 12.4    0.002    0.002    0.055    0.055
 xc_rho_set_and_dset_create          17 13.4    0.000    0.000    0.053    0.053
 potential_pw2rs                     17 13.4    0.000    0.000    0.052    0.052
 xc_functional_eval                  17 14.4    0.051    0.051    0.051    0.051
 qs_init_subsys                       1  2.0    0.000    0.000    0.051    0.051
 qs_env_setup                         1  3.0    0.000    0.000    0.049    0.049
 qs_env_rebuild_pw_env                6  6.0    0.000    0.000    0.049    0.049
 pw_env_rebuild                       1  5.0    0.000    0.000    0.049    0.049
 pw_grid_setup                        5  6.0    0.000    0.000    0.047    0.047
 pw_grid_setup_internal               5  7.0    0.003    0.003    0.047    0.047
 wfi_extrapolate                      3  8.7    0.000    0.000    0.045    0.045
 pw_poisson_solve                    17 11.4    0.010    0.010    0.041    0.041
 qs_energies_init_hamiltonians        3  6.7    0.000    0.000    0.037    0.037
 pw_grid_sort                         5  8.0    0.026    0.026    0.034    0.034
 pw_scatter_s                        86 16.3    0.033    0.033    0.033    0.033
 pw_gather_s                         93 15.3    0.025    0.025    0.025    0.025
 pw_poisson_rebuild                  17 12.4    0.001    0.001    0.025    0.025
 MTin_create_screen_fn                1 14.0    0.001    0.001    0.024    0.024
 build_core_hamiltonian_matrix_       2  6.0    0.000    0.000    0.021    0.021
 -------------------------------------------------------------------------------

 The number of warnings for this run is : 0
 
 -------------------------------------------------------------------------------
  **** **** ******  **  PROGRAM ENDED AT                 2018-12-18 18:05:17.879
 ***** ** ***  *** **   PROGRAM RAN ON                              84324fee6dfa
 **    ****   ******    PROGRAM RAN BY                                  root ;-)
 ***** **    ** ** **   PROGRAM PROCESS ID                                  9460
  **** **  *******  **  PROGRAM STOPPED IN /tmp/tmpypnb9ao9/test_repo/sandbox/tm
                                           p5u20j0wb/20181218-00001
