 DBCSR| Multiplication driver                                               XSMM
 DBCSR| Multrec recursion limit                                              512
 DBCSR| Multiplication stack size                                           1000
 DBCSR| Maximum elements for images                                    UNLIMITED
 DBCSR| Multiplicative factor virtual images                                   1
 DBCSR| Multiplication size stacks                                             3
 DBCSR| Number of 3D layers                                               SINGLE
 DBCSR| Use MPI memory allocation                                              T
 DBCSR| Use RMA algorithm                                                      F
 DBCSR| Use Communication thread                                               T
 DBCSR| Communication thread load                                             87


  **** **** ******  **  PROGRAM STARTED AT               2017-10-03 17:03:13.396
 ***** ** ***  *** **   PROGRAM STARTED ON                              nid00111
 **    ****   ******    PROGRAM STARTED BY                                timuel
 ***** **    ** ** **   PROGRAM PROCESS ID                                 52698
  **** **  *******  **  PROGRAM STARTED IN /scratch/snx1600/timuel/fdaemon-data/
                                           f6c7d527-1919-41a1-a13b-8f03ea99ef98

 CP2K| version string:                    CP2K version 5.0 (Development Version)
 CP2K| source code revision number:                                    svn:18071
 CP2K| cp2kflags: omp libint fftw3 libxc elpa=201605 elpa_qr parallel mpi3 scala
 CP2K|            pack xsmm has_no_shared_glibc libderiv_max_am1=6 libint_max_am=7 max_contr=4
 CP2K| is freely available from                            https://www.cp2k.org/
 CP2K| Program compiled at                         Die Okt  3 10:30:53 CEST 2017
 CP2K| Program compiled on                                              daint101
 CP2K| Program compiled for                    CRAY_XC40-gfortran-6.0.3_daint-mc
 CP2K| Data directory path                 /users/timuel/fatman/bin/cp2k.mc/data
 CP2K| Input file name                                                  calc.inp

 GLOBAL| Force Environment number                                              1
 GLOBAL| Basis set file name                                        ./BASIS_SETS
 GLOBAL| Potential file name                                        ./POTENTIALS
 GLOBAL| MM Potential file name                                     MM_POTENTIAL
 GLOBAL| Coordinate file name                                       ./struct.xyz
 GLOBAL| Method name                                                        CP2K
 GLOBAL| Project name                                                fatman.calc
 GLOBAL| Preferred FFT library                                             FFTW3
 GLOBAL| Preferred diagonalization lib.                                       SL
 GLOBAL| Run type                                                         ENERGY
 GLOBAL| All-to-all communication in single precision                          F
 GLOBAL| FFTs using library dependent lengths                                  F
 GLOBAL| Global print level                                               MEDIUM
 GLOBAL| Total number of message passing processes                           288
 GLOBAL| Number of threads for this process                                    1
 GLOBAL| This output is from process                                           0
 GLOBAL| CPU model name :  Intel(R) Xeon(R) CPU E5-2695 v4 @ 2.10GHz

 MEMORY| system memory details [Kb]
 MEMORY|                        rank 0           min           max       average
 MEMORY| MemTotal             65860780      65860780      65860780      65860780
 MEMORY| MemFree              61230888      61230884      61597268      61536310
 MEMORY| Buffers                   380           140           408           315
 MEMORY| Cached                1028076        767276       1028076        804439
 MEMORY| Slab                   279188        268716        279272        273778
 MEMORY| SReclaimable            19436         18016         19436         18500
 MEMORY| MemLikelyFree        62278780      62278776      62387784      62359564


 *** Fundamental physical constants (SI units) ***

 *** Literature: B. J. Mohr and B. N. Taylor,
 ***             CODATA recommended values of the fundamental physical
 ***             constants: 2006, Web Version 5.1
 ***             http://physics.nist.gov/constants

 Speed of light in vacuum [m/s]                             2.99792458000000E+08
 Magnetic constant or permeability of vacuum [N/A**2]       1.25663706143592E-06
 Electric constant or permittivity of vacuum [F/m]          8.85418781762039E-12
 Planck constant (h) [J*s]                                  6.62606896000000E-34
 Planck constant (h-bar) [J*s]                              1.05457162825177E-34
 Elementary charge [C]                                      1.60217648700000E-19
 Electron mass [kg]                                         9.10938215000000E-31
 Electron g factor [ ]                                     -2.00231930436220E+00
 Proton mass [kg]                                           1.67262163700000E-27
 Fine-structure constant                                    7.29735253760000E-03
 Rydberg constant [1/m]                                     1.09737315685270E+07
 Avogadro constant [1/mol]                                  6.02214179000000E+23
 Boltzmann constant [J/K]                                   1.38065040000000E-23
 Atomic mass unit [kg]                                      1.66053878200000E-27
 Bohr radius [m]                                            5.29177208590000E-11

 *** Conversion factors ***

 [u] -> [a.u.]                                              1.82288848426455E+03
 [Angstrom] -> [Bohr] = [a.u.]                              1.88972613288564E+00
 [a.u.] = [Bohr] -> [Angstrom]                              5.29177208590000E-01
 [a.u.] -> [s]                                              2.41888432650478E-17
 [a.u.] -> [fs]                                             2.41888432650478E-02
 [a.u.] -> [J]                                              4.35974393937059E-18
 [a.u.] -> [N]                                              8.23872205491840E-08
 [a.u.] -> [K]                                              3.15774647902944E+05
 [a.u.] -> [kJ/mol]                                         2.62549961709828E+03
 [a.u.] -> [kcal/mol]                                       6.27509468713739E+02
 [a.u.] -> [Pa]                                             2.94210107994716E+13
 [a.u.] -> [bar]                                            2.94210107994716E+08
 [a.u.] -> [atm]                                            2.90362800883016E+08
 [a.u.] -> [eV]                                             2.72113838565563E+01
 [a.u.] -> [Hz]                                             6.57968392072181E+15
 [a.u.] -> [1/cm] (wave numbers)                            2.19474631370540E+05
 [a.u./Bohr**2] -> [1/cm]                                   5.14048714338585E+03
 

 CELL_TOP| Volume [angstrom^3]:                                           21.412
 CELL_TOP| Vector a [angstrom     2.777     0.000     0.000    |a| =       2.777
 CELL_TOP| Vector b [angstrom     0.000     2.777     0.000    |b| =       2.777
 CELL_TOP| Vector c [angstrom     0.000     0.000     2.777    |c| =       2.777
 CELL_TOP| Angle (b,c), alpha [degree]:                                   90.000
 CELL_TOP| Angle (a,c), beta  [degree]:                                   90.000
 CELL_TOP| Angle (a,b), gamma [degree]:                                   90.000
 CELL_TOP| Numerically orthorhombic:                                         YES

 GENERATE|  Preliminary Number of Bonds generated:                             0
 GENERATE|  Achieved consistency in connectivity generation.

 CELL| Volume [angstrom^3]:                                               21.412
 CELL| Vector a [angstrom]:       2.777     0.000     0.000    |a| =       2.777
 CELL| Vector b [angstrom]:       0.000     2.777     0.000    |b| =       2.777
 CELL| Vector c [angstrom]:       0.000     0.000     2.777    |c| =       2.777
 CELL| Angle (b,c), alpha [degree]:                                       90.000
 CELL| Angle (a,c), beta  [degree]:                                       90.000
 CELL| Angle (a,b), gamma [degree]:                                       90.000
 CELL| Numerically orthorhombic:                                             YES

 CELL_REF| Volume [angstrom^3]:                                           27.300
 CELL_REF| Vector a [angstrom     3.011     0.000     0.000    |a| =       3.011
 CELL_REF| Vector b [angstrom     0.000     3.011     0.000    |b| =       3.011
 CELL_REF| Vector c [angstrom     0.000     0.000     3.011    |c| =       3.011
 CELL_REF| Angle (b,c), alpha [degree]:                                   90.000
 CELL_REF| Angle (a,c), beta  [degree]:                                   90.000
 CELL_REF| Angle (a,b), gamma [degree]:                                   90.000
 CELL_REF| Numerically orthorhombic:                                         YES

 *** WARNING in cryssym.F:163 :: Symmetry library SPGLIB not available ***


 *******************************************************************************
                                    Kpoints
 *******************************************************************************
 BRILLOUIN| K-point scheme                                        Monkhorst-Pack
 BRILLOUIN| K-Point grid                                            36   36   36
 BRILLOUIN| Accuracy in Symmetry determination                      0.100000E-05
 BRILLOUIN| K-Point point group symmetrization                               OFF
 BRILLOUIN| Wavefunction type                                            COMPLEX
 BRILLOUIN| List of Kpoints [2 Pi/Bohr]                                    23328
 BRILLOUIN| Number           Weight            X              Y              Z
 BRILLOUIN|     1           0.00004       -0.48611       -0.48611       -0.48611
 BRILLOUIN|     2           0.00004       -0.48611       -0.48611       -0.45833
 BRILLOUIN|     3           0.00004       -0.48611       -0.48611       -0.43056
 BRILLOUIN|     4           0.00004       -0.48611       -0.48611       -0.40278
 BRILLOUIN|     5           0.00004       -0.48611       -0.48611       -0.37500
 BRILLOUIN|     6           0.00004       -0.48611       -0.48611       -0.34722
 BRILLOUIN|     7           0.00004       -0.48611       -0.48611       -0.31944
 BRILLOUIN|     8           0.00004       -0.48611       -0.48611       -0.29167
 BRILLOUIN|     9           0.00004       -0.48611       -0.48611       -0.26389
 BRILLOUIN|    10           0.00004       -0.48611       -0.48611       -0.23611
 BRILLOUIN|    11           0.00004       -0.48611       -0.48611       -0.20833
 BRILLOUIN|    12           0.00004       -0.48611       -0.48611       -0.18056
 BRILLOUIN|    13           0.00004       -0.48611       -0.48611       -0.15278
 BRILLOUIN|    14           0.00004       -0.48611       -0.48611       -0.12500
 BRILLOUIN|    15           0.00004       -0.48611       -0.48611       -0.09722
 BRILLOUIN|    16           0.00004       -0.48611       -0.48611       -0.06944
 BRILLOUIN|    17           0.00004       -0.48611       -0.48611       -0.04167
 BRILLOUIN|    18           0.00004       -0.48611       -0.48611       -0.01389
 BRILLOUIN|    19           0.00004       -0.48611       -0.48611        0.01389
 BRILLOUIN|    20           0.00004       -0.48611       -0.48611        0.04167
 BRILLOUIN|    21           0.00004       -0.48611       -0.48611        0.06944
 BRILLOUIN|    22           0.00004       -0.48611       -0.48611        0.09722
 BRILLOUIN|    23           0.00004       -0.48611       -0.48611        0.12500
 BRILLOUIN|    24           0.00004       -0.48611       -0.48611        0.15278
 BRILLOUIN|    25           0.00004       -0.48611       -0.48611        0.18056
 BRILLOUIN|    26           0.00004       -0.48611       -0.48611        0.20833
 BRILLOUIN|    27           0.00004       -0.48611       -0.48611        0.23611
 BRILLOUIN|    28           0.00004       -0.48611       -0.48611        0.26389
 BRILLOUIN|    29           0.00004       -0.48611       -0.48611        0.29167
 BRILLOUIN|    30           0.00004       -0.48611       -0.48611        0.31944
 BRILLOUIN|    31           0.00004       -0.48611       -0.48611        0.34722
 BRILLOUIN|    32           0.00004       -0.48611       -0.48611        0.37500
 BRILLOUIN|    33           0.00004       -0.48611       -0.48611        0.40278
 BRILLOUIN|    34           0.00004       -0.48611       -0.48611        0.43056
 BRILLOUIN|    35           0.00004       -0.48611       -0.48611        0.45833
 BRILLOUIN|    36           0.00004       -0.48611       -0.48611        0.48611
 BRILLOUIN|    37           0.00004       -0.48611       -0.45833       -0.48611
 BRILLOUIN|    38           0.00004       -0.48611       -0.45833       -0.45833
 BRILLOUIN|    39           0.00004       -0.48611       -0.45833       -0.43056
 BRILLOUIN|    40           0.00004       -0.48611       -0.45833       -0.40278
 BRILLOUIN|    41           0.00004       -0.48611       -0.45833       -0.37500
 BRILLOUIN|    42           0.00004       -0.48611       -0.45833       -0.34722
 BRILLOUIN|    43           0.00004       -0.48611       -0.45833       -0.31944
 BRILLOUIN|    44           0.00004       -0.48611       -0.45833       -0.29167
 BRILLOUIN|    45           0.00004       -0.48611       -0.45833       -0.26389
 BRILLOUIN|    46           0.00004       -0.48611       -0.45833       -0.23611
 BRILLOUIN|    47           0.00004       -0.48611       -0.45833       -0.20833
 BRILLOUIN|    48           0.00004       -0.48611       -0.45833       -0.18056
 BRILLOUIN|    49           0.00004       -0.48611       -0.45833       -0.15278
 BRILLOUIN|    50           0.00004       -0.48611       -0.45833       -0.12500
 BRILLOUIN|    51           0.00004       -0.48611       -0.45833       -0.09722
 BRILLOUIN|    52           0.00004       -0.48611       -0.45833       -0.06944
 BRILLOUIN|    53           0.00004       -0.48611       -0.45833       -0.04167
 BRILLOUIN|    54           0.00004       -0.48611       -0.45833       -0.01389
 BRILLOUIN|    55           0.00004       -0.48611       -0.45833        0.01389
 BRILLOUIN|    56           0.00004       -0.48611       -0.45833        0.04167
 BRILLOUIN|    57           0.00004       -0.48611       -0.45833        0.06944
 BRILLOUIN|    58           0.00004       -0.48611       -0.45833        0.09722
 BRILLOUIN|    59           0.00004       -0.48611       -0.45833        0.12500
 BRILLOUIN|    60           0.00004       -0.48611       -0.45833        0.15278
 BRILLOUIN|    61           0.00004       -0.48611       -0.45833        0.18056
 BRILLOUIN|    62           0.00004       -0.48611       -0.45833        0.20833
 BRILLOUIN|    63           0.00004       -0.48611       -0.45833        0.23611
 BRILLOUIN|    64           0.00004       -0.48611       -0.45833        0.26389
 BRILLOUIN|    65           0.00004       -0.48611       -0.45833        0.29167
 BRILLOUIN|    66           0.00004       -0.48611       -0.45833        0.31944
 BRILLOUIN|    67           0.00004       -0.48611       -0.45833        0.34722
 BRILLOUIN|    68           0.00004       -0.48611       -0.45833        0.37500
 BRILLOUIN|    69           0.00004       -0.48611       -0.45833        0.40278
 BRILLOUIN|    70           0.00004       -0.48611       -0.45833        0.43056
 BRILLOUIN|    71           0.00004       -0.48611       -0.45833        0.45833
 BRILLOUIN|    72           0.00004       -0.48611       -0.45833        0.48611
 BRILLOUIN|    73           0.00004       -0.48611       -0.43056       -0.48611
 BRILLOUIN|    74           0.00004       -0.48611       -0.43056       -0.45833
 BRILLOUIN|    75           0.00004       -0.48611       -0.43056       -0.43056
 BRILLOUIN|    76           0.00004       -0.48611       -0.43056       -0.40278
 BRILLOUIN|    77           0.00004       -0.48611       -0.43056       -0.37500
 BRILLOUIN|    78           0.00004       -0.48611       -0.43056       -0.34722
 BRILLOUIN|    79           0.00004       -0.48611       -0.43056       -0.31944
 BRILLOUIN|    80           0.00004       -0.48611       -0.43056       -0.29167
 BRILLOUIN|    81           0.00004       -0.48611       -0.43056       -0.26389
 BRILLOUIN|    82           0.00004       -0.48611       -0.43056       -0.23611
 BRILLOUIN|    83           0.00004       -0.48611       -0.43056       -0.20833
 BRILLOUIN|    84           0.00004       -0.48611       -0.43056       -0.18056
 BRILLOUIN|    85           0.00004       -0.48611       -0.43056       -0.15278
 BRILLOUIN|    86           0.00004       -0.48611       -0.43056       -0.12500
 BRILLOUIN|    87           0.00004       -0.48611       -0.43056       -0.09722
 BRILLOUIN|    88           0.00004       -0.48611       -0.43056       -0.06944
 BRILLOUIN|    89           0.00004       -0.48611       -0.43056       -0.04167
 BRILLOUIN|    90           0.00004       -0.48611       -0.43056       -0.01389
 BRILLOUIN|    91           0.00004       -0.48611       -0.43056        0.01389
 BRILLOUIN|    92           0.00004       -0.48611       -0.43056        0.04167
 BRILLOUIN|    93           0.00004       -0.48611       -0.43056        0.06944
 BRILLOUIN|    94           0.00004       -0.48611       -0.43056        0.09722
 BRILLOUIN|    95           0.00004       -0.48611       -0.43056        0.12500
 BRILLOUIN|    96           0.00004       -0.48611       -0.43056        0.15278
 BRILLOUIN|    97           0.00004       -0.48611       -0.43056        0.18056
 BRILLOUIN|    98           0.00004       -0.48611       -0.43056        0.20833
 BRILLOUIN|    99           0.00004       -0.48611       -0.43056        0.23611
 BRILLOUIN|   100           0.00004       -0.48611       -0.43056        0.26389
 BRILLOUIN|   101           0.00004       -0.48611       -0.43056        0.29167
 BRILLOUIN|   102           0.00004       -0.48611       -0.43056        0.31944
 BRILLOUIN|   103           0.00004       -0.48611       -0.43056        0.34722
 BRILLOUIN|   104           0.00004       -0.48611       -0.43056        0.37500
 BRILLOUIN|   105           0.00004       -0.48611       -0.43056        0.40278
 BRILLOUIN|   106           0.00004       -0.48611       -0.43056        0.43056
 BRILLOUIN|   107           0.00004       -0.48611       -0.43056        0.45833
 BRILLOUIN|   108           0.00004       -0.48611       -0.43056        0.48611
 BRILLOUIN|   109           0.00004       -0.48611       -0.40278       -0.48611
 BRILLOUIN|   110           0.00004       -0.48611       -0.40278       -0.45833
 BRILLOUIN|   111           0.00004       -0.48611       -0.40278       -0.43056
 BRILLOUIN|   112           0.00004       -0.48611       -0.40278       -0.40278
 BRILLOUIN|   113           0.00004       -0.48611       -0.40278       -0.37500
 BRILLOUIN|   114           0.00004       -0.48611       -0.40278       -0.34722
 BRILLOUIN|   115           0.00004       -0.48611       -0.40278       -0.31944
 BRILLOUIN|   116           0.00004       -0.48611       -0.40278       -0.29167
 BRILLOUIN|   117           0.00004       -0.48611       -0.40278       -0.26389
 BRILLOUIN|   118           0.00004       -0.48611       -0.40278       -0.23611
 BRILLOUIN|   119           0.00004       -0.48611       -0.40278       -0.20833
 BRILLOUIN|   120           0.00004       -0.48611       -0.40278       -0.18056
 BRILLOUIN|   121           0.00004       -0.48611       -0.40278       -0.15278
 BRILLOUIN|   122           0.00004       -0.48611       -0.40278       -0.12500
 BRILLOUIN|   123           0.00004       -0.48611       -0.40278       -0.09722
 BRILLOUIN|   124           0.00004       -0.48611       -0.40278       -0.06944
 BRILLOUIN|   125           0.00004       -0.48611       -0.40278       -0.04167
 BRILLOUIN|   126           0.00004       -0.48611       -0.40278       -0.01389
 BRILLOUIN|   127           0.00004       -0.48611       -0.40278        0.01389
 BRILLOUIN|   128           0.00004       -0.48611       -0.40278        0.04167
 BRILLOUIN|   129           0.00004       -0.48611       -0.40278        0.06944
 BRILLOUIN|   130           0.00004       -0.48611       -0.40278        0.09722
 BRILLOUIN|   131           0.00004       -0.48611       -0.40278        0.12500
 BRILLOUIN|   132           0.00004       -0.48611       -0.40278        0.15278
 BRILLOUIN|   133           0.00004       -0.48611       -0.40278        0.18056
 BRILLOUIN|   134           0.00004       -0.48611       -0.40278        0.20833
 BRILLOUIN|   135           0.00004       -0.48611       -0.40278        0.23611
 BRILLOUIN|   136           0.00004       -0.48611       -0.40278        0.26389
 BRILLOUIN|   137           0.00004       -0.48611       -0.40278        0.29167
 BRILLOUIN|   138           0.00004       -0.48611       -0.40278        0.31944
 BRILLOUIN|   139           0.00004       -0.48611       -0.40278        0.34722
 BRILLOUIN|   140           0.00004       -0.48611       -0.40278        0.37500
 BRILLOUIN|   141           0.00004       -0.48611       -0.40278        0.40278
 BRILLOUIN|   142           0.00004       -0.48611       -0.40278        0.43056
 BRILLOUIN|   143           0.00004       -0.48611       -0.40278        0.45833
 BRILLOUIN|   144           0.00004       -0.48611       -0.40278        0.48611
 BRILLOUIN|   145           0.00004       -0.48611       -0.37500       -0.48611
 BRILLOUIN|   146           0.00004       -0.48611       -0.37500       -0.45833
 BRILLOUIN|   147           0.00004       -0.48611       -0.37500       -0.43056
 BRILLOUIN|   148           0.00004       -0.48611       -0.37500       -0.40278
 BRILLOUIN|   149           0.00004       -0.48611       -0.37500       -0.37500
 BRILLOUIN|   150           0.00004       -0.48611       -0.37500       -0.34722
 BRILLOUIN|   151           0.00004       -0.48611       -0.37500       -0.31944
 BRILLOUIN|   152           0.00004       -0.48611       -0.37500       -0.29167
 BRILLOUIN|   153           0.00004       -0.48611       -0.37500       -0.26389
 BRILLOUIN|   154           0.00004       -0.48611       -0.37500       -0.23611
 BRILLOUIN|   155           0.00004       -0.48611       -0.37500       -0.20833
 BRILLOUIN|   156           0.00004       -0.48611       -0.37500       -0.18056
 BRILLOUIN|   157           0.00004       -0.48611       -0.37500       -0.15278
 BRILLOUIN|   158           0.00004       -0.48611       -0.37500       -0.12500
 BRILLOUIN|   159           0.00004       -0.48611       -0.37500       -0.09722
 BRILLOUIN|   160           0.00004       -0.48611       -0.37500       -0.06944
 BRILLOUIN|   161           0.00004       -0.48611       -0.37500       -0.04167
 BRILLOUIN|   162           0.00004       -0.48611       -0.37500       -0.01389
 BRILLOUIN|   163           0.00004       -0.48611       -0.37500        0.01389
 BRILLOUIN|   164           0.00004       -0.48611       -0.37500        0.04167
 BRILLOUIN|   165           0.00004       -0.48611       -0.37500        0.06944
 BRILLOUIN|   166           0.00004       -0.48611       -0.37500        0.09722
 BRILLOUIN|   167           0.00004       -0.48611       -0.37500        0.12500
 BRILLOUIN|   168           0.00004       -0.48611       -0.37500        0.15278
 BRILLOUIN|   169           0.00004       -0.48611       -0.37500        0.18056
 BRILLOUIN|   170           0.00004       -0.48611       -0.37500        0.20833
 BRILLOUIN|   171           0.00004       -0.48611       -0.37500        0.23611
 BRILLOUIN|   172           0.00004       -0.48611       -0.37500        0.26389
 BRILLOUIN|   173           0.00004       -0.48611       -0.37500        0.29167
 BRILLOUIN|   174           0.00004       -0.48611       -0.37500        0.31944
 BRILLOUIN|   175           0.00004       -0.48611       -0.37500        0.34722
 BRILLOUIN|   176           0.00004       -0.48611       -0.37500        0.37500
 BRILLOUIN|   177           0.00004       -0.48611       -0.37500        0.40278
 BRILLOUIN|   178           0.00004       -0.48611       -0.37500        0.43056
 BRILLOUIN|   179           0.00004       -0.48611       -0.37500        0.45833
 BRILLOUIN|   180           0.00004       -0.48611       -0.37500        0.48611
 BRILLOUIN|   181           0.00004       -0.48611       -0.34722       -0.48611
 BRILLOUIN|   182           0.00004       -0.48611       -0.34722       -0.45833
 BRILLOUIN|   183           0.00004       -0.48611       -0.34722       -0.43056
 BRILLOUIN|   184           0.00004       -0.48611       -0.34722       -0.40278
 BRILLOUIN|   185           0.00004       -0.48611       -0.34722       -0.37500
 BRILLOUIN|   186           0.00004       -0.48611       -0.34722       -0.34722
 BRILLOUIN|   187           0.00004       -0.48611       -0.34722       -0.31944
 BRILLOUIN|   188           0.00004       -0.48611       -0.34722       -0.29167
 BRILLOUIN|   189           0.00004       -0.48611       -0.34722       -0.26389
 BRILLOUIN|   190           0.00004       -0.48611       -0.34722       -0.23611
 BRILLOUIN|   191           0.00004       -0.48611       -0.34722       -0.20833
 BRILLOUIN|   192           0.00004       -0.48611       -0.34722       -0.18056
 BRILLOUIN|   193           0.00004       -0.48611       -0.34722       -0.15278
 BRILLOUIN|   194           0.00004       -0.48611       -0.34722       -0.12500
 BRILLOUIN|   195           0.00004       -0.48611       -0.34722       -0.09722
 BRILLOUIN|   196           0.00004       -0.48611       -0.34722       -0.06944
 BRILLOUIN|   197           0.00004       -0.48611       -0.34722       -0.04167
 BRILLOUIN|   198           0.00004       -0.48611       -0.34722       -0.01389
 BRILLOUIN|   199           0.00004       -0.48611       -0.34722        0.01389
 BRILLOUIN|   200           0.00004       -0.48611       -0.34722        0.04167
 BRILLOUIN|   201           0.00004       -0.48611       -0.34722        0.06944
 BRILLOUIN|   202           0.00004       -0.48611       -0.34722        0.09722
 BRILLOUIN|   203           0.00004       -0.48611       -0.34722        0.12500
 BRILLOUIN|   204           0.00004       -0.48611       -0.34722        0.15278
 BRILLOUIN|   205           0.00004       -0.48611       -0.34722        0.18056
 BRILLOUIN|   206           0.00004       -0.48611       -0.34722        0.20833
 BRILLOUIN|   207           0.00004       -0.48611       -0.34722        0.23611
 BRILLOUIN|   208           0.00004       -0.48611       -0.34722        0.26389
 BRILLOUIN|   209           0.00004       -0.48611       -0.34722        0.29167
 BRILLOUIN|   210           0.00004       -0.48611       -0.34722        0.31944
 BRILLOUIN|   211           0.00004       -0.48611       -0.34722        0.34722
 BRILLOUIN|   212           0.00004       -0.48611       -0.34722        0.37500
 BRILLOUIN|   213           0.00004       -0.48611       -0.34722        0.40278
 BRILLOUIN|   214           0.00004       -0.48611       -0.34722        0.43056
 BRILLOUIN|   215           0.00004       -0.48611       -0.34722        0.45833
 BRILLOUIN|   216           0.00004       -0.48611       -0.34722        0.48611
 BRILLOUIN|   217           0.00004       -0.48611       -0.31944       -0.48611
 BRILLOUIN|   218           0.00004       -0.48611       -0.31944       -0.45833
 BRILLOUIN|   219           0.00004       -0.48611       -0.31944       -0.43056
 BRILLOUIN|   220           0.00004       -0.48611       -0.31944       -0.40278
 BRILLOUIN|   221           0.00004       -0.48611       -0.31944       -0.37500
 BRILLOUIN|   222           0.00004       -0.48611       -0.31944       -0.34722
 BRILLOUIN|   223           0.00004       -0.48611       -0.31944       -0.31944
 BRILLOUIN|   224           0.00004       -0.48611       -0.31944       -0.29167
 BRILLOUIN|   225           0.00004       -0.48611       -0.31944       -0.26389
 BRILLOUIN|   226           0.00004       -0.48611       -0.31944       -0.23611
 BRILLOUIN|   227           0.00004       -0.48611       -0.31944       -0.20833
 BRILLOUIN|   228           0.00004       -0.48611       -0.31944       -0.18056
 BRILLOUIN|   229           0.00004       -0.48611       -0.31944       -0.15278
 BRILLOUIN|   230           0.00004       -0.48611       -0.31944       -0.12500
 BRILLOUIN|   231           0.00004       -0.48611       -0.31944       -0.09722
 BRILLOUIN|   232           0.00004       -0.48611       -0.31944       -0.06944
 BRILLOUIN|   233           0.00004       -0.48611       -0.31944       -0.04167
 BRILLOUIN|   234           0.00004       -0.48611       -0.31944       -0.01389
 BRILLOUIN|   235           0.00004       -0.48611       -0.31944        0.01389
 BRILLOUIN|   236           0.00004       -0.48611       -0.31944        0.04167
 BRILLOUIN|   237           0.00004       -0.48611       -0.31944        0.06944
 BRILLOUIN|   238           0.00004       -0.48611       -0.31944        0.09722
 BRILLOUIN|   239           0.00004       -0.48611       -0.31944        0.12500
 BRILLOUIN|   240           0.00004       -0.48611       -0.31944        0.15278
 BRILLOUIN|   241           0.00004       -0.48611       -0.31944        0.18056
 BRILLOUIN|   242           0.00004       -0.48611       -0.31944        0.20833
 BRILLOUIN|   243           0.00004       -0.48611       -0.31944        0.23611
 BRILLOUIN|   244           0.00004       -0.48611       -0.31944        0.26389
 BRILLOUIN|   245           0.00004       -0.48611       -0.31944        0.29167
 BRILLOUIN|   246           0.00004       -0.48611       -0.31944        0.31944
 BRILLOUIN|   247           0.00004       -0.48611       -0.31944        0.34722
 BRILLOUIN|   248           0.00004       -0.48611       -0.31944        0.37500
 BRILLOUIN|   249           0.00004       -0.48611       -0.31944        0.40278
 BRILLOUIN|   250           0.00004       -0.48611       -0.31944        0.43056
 BRILLOUIN|   251           0.00004       -0.48611       -0.31944        0.45833
 BRILLOUIN|   252           0.00004       -0.48611       -0.31944        0.48611
 BRILLOUIN|   253           0.00004       -0.48611       -0.29167       -0.48611
 BRILLOUIN|   254           0.00004       -0.48611       -0.29167       -0.45833
 BRILLOUIN|   255           0.00004       -0.48611       -0.29167       -0.43056
 BRILLOUIN|   256           0.00004       -0.48611       -0.29167       -0.40278
 BRILLOUIN|   257           0.00004       -0.48611       -0.29167       -0.37500
 BRILLOUIN|   258           0.00004       -0.48611       -0.29167       -0.34722
 BRILLOUIN|   259           0.00004       -0.48611       -0.29167       -0.31944
 BRILLOUIN|   260           0.00004       -0.48611       -0.29167       -0.29167
 BRILLOUIN|   261           0.00004       -0.48611       -0.29167       -0.26389
 BRILLOUIN|   262           0.00004       -0.48611       -0.29167       -0.23611
 BRILLOUIN|   263           0.00004       -0.48611       -0.29167       -0.20833
 BRILLOUIN|   264           0.00004       -0.48611       -0.29167       -0.18056
 BRILLOUIN|   265           0.00004       -0.48611       -0.29167       -0.15278
 BRILLOUIN|   266           0.00004       -0.48611       -0.29167       -0.12500
 BRILLOUIN|   267           0.00004       -0.48611       -0.29167       -0.09722
 BRILLOUIN|   268           0.00004       -0.48611       -0.29167       -0.06944
 BRILLOUIN|   269           0.00004       -0.48611       -0.29167       -0.04167
 BRILLOUIN|   270           0.00004       -0.48611       -0.29167       -0.01389
 BRILLOUIN|   271           0.00004       -0.48611       -0.29167        0.01389
 BRILLOUIN|   272           0.00004       -0.48611       -0.29167        0.04167
 BRILLOUIN|   273           0.00004       -0.48611       -0.29167        0.06944
 BRILLOUIN|   274           0.00004       -0.48611       -0.29167        0.09722
 BRILLOUIN|   275           0.00004       -0.48611       -0.29167        0.12500
 BRILLOUIN|   276           0.00004       -0.48611       -0.29167        0.15278
 BRILLOUIN|   277           0.00004       -0.48611       -0.29167        0.18056
 BRILLOUIN|   278           0.00004       -0.48611       -0.29167        0.20833
 BRILLOUIN|   279           0.00004       -0.48611       -0.29167        0.23611
 BRILLOUIN|   280           0.00004       -0.48611       -0.29167        0.26389
 BRILLOUIN|   281           0.00004       -0.48611       -0.29167        0.29167
 BRILLOUIN|   282           0.00004       -0.48611       -0.29167        0.31944
 BRILLOUIN|   283           0.00004       -0.48611       -0.29167        0.34722
 BRILLOUIN|   284           0.00004       -0.48611       -0.29167        0.37500
 BRILLOUIN|   285           0.00004       -0.48611       -0.29167        0.40278
 BRILLOUIN|   286           0.00004       -0.48611       -0.29167        0.43056
 BRILLOUIN|   287           0.00004       -0.48611       -0.29167        0.45833
 BRILLOUIN|   288           0.00004       -0.48611       -0.29167        0.48611
 BRILLOUIN|   289           0.00004       -0.48611       -0.26389       -0.48611
 BRILLOUIN|   290           0.00004       -0.48611       -0.26389       -0.45833
 BRILLOUIN|   291           0.00004       -0.48611       -0.26389       -0.43056
 BRILLOUIN|   292           0.00004       -0.48611       -0.26389       -0.40278
 BRILLOUIN|   293           0.00004       -0.48611       -0.26389       -0.37500
 BRILLOUIN|   294           0.00004       -0.48611       -0.26389       -0.34722
 BRILLOUIN|   295           0.00004       -0.48611       -0.26389       -0.31944
 BRILLOUIN|   296           0.00004       -0.48611       -0.26389       -0.29167
 BRILLOUIN|   297           0.00004       -0.48611       -0.26389       -0.26389
 BRILLOUIN|   298           0.00004       -0.48611       -0.26389       -0.23611
 BRILLOUIN|   299           0.00004       -0.48611       -0.26389       -0.20833
 BRILLOUIN|   300           0.00004       -0.48611       -0.26389       -0.18056
 BRILLOUIN|   301           0.00004       -0.48611       -0.26389       -0.15278
 BRILLOUIN|   302           0.00004       -0.48611       -0.26389       -0.12500
 BRILLOUIN|   303           0.00004       -0.48611       -0.26389       -0.09722
 BRILLOUIN|   304           0.00004       -0.48611       -0.26389       -0.06944
 BRILLOUIN|   305           0.00004       -0.48611       -0.26389       -0.04167
 BRILLOUIN|   306           0.00004       -0.48611       -0.26389       -0.01389
 BRILLOUIN|   307           0.00004       -0.48611       -0.26389        0.01389
 BRILLOUIN|   308           0.00004       -0.48611       -0.26389        0.04167
 BRILLOUIN|   309           0.00004       -0.48611       -0.26389        0.06944
 BRILLOUIN|   310           0.00004       -0.48611       -0.26389        0.09722
 BRILLOUIN|   311           0.00004       -0.48611       -0.26389        0.12500
 BRILLOUIN|   312           0.00004       -0.48611       -0.26389        0.15278
 BRILLOUIN|   313           0.00004       -0.48611       -0.26389        0.18056
 BRILLOUIN|   314           0.00004       -0.48611       -0.26389        0.20833
 BRILLOUIN|   315           0.00004       -0.48611       -0.26389        0.23611
 BRILLOUIN|   316           0.00004       -0.48611       -0.26389        0.26389
 BRILLOUIN|   317           0.00004       -0.48611       -0.26389        0.29167
 BRILLOUIN|   318           0.00004       -0.48611       -0.26389        0.31944
 BRILLOUIN|   319           0.00004       -0.48611       -0.26389        0.34722
 BRILLOUIN|   320           0.00004       -0.48611       -0.26389        0.37500
 BRILLOUIN|   321           0.00004       -0.48611       -0.26389        0.40278
 BRILLOUIN|   322           0.00004       -0.48611       -0.26389        0.43056
 BRILLOUIN|   323           0.00004       -0.48611       -0.26389        0.45833
 BRILLOUIN|   324           0.00004       -0.48611       -0.26389        0.48611
 BRILLOUIN|   325           0.00004       -0.48611       -0.23611       -0.48611
 BRILLOUIN|   326           0.00004       -0.48611       -0.23611       -0.45833
 BRILLOUIN|   327           0.00004       -0.48611       -0.23611       -0.43056
 BRILLOUIN|   328           0.00004       -0.48611       -0.23611       -0.40278
 BRILLOUIN|   329           0.00004       -0.48611       -0.23611       -0.37500
 BRILLOUIN|   330           0.00004       -0.48611       -0.23611       -0.34722
 BRILLOUIN|   331           0.00004       -0.48611       -0.23611       -0.31944
 BRILLOUIN|   332           0.00004       -0.48611       -0.23611       -0.29167
 BRILLOUIN|   333           0.00004       -0.48611       -0.23611       -0.26389
 BRILLOUIN|   334           0.00004       -0.48611       -0.23611       -0.23611
 BRILLOUIN|   335           0.00004       -0.48611       -0.23611       -0.20833
 BRILLOUIN|   336           0.00004       -0.48611       -0.23611       -0.18056
 BRILLOUIN|   337           0.00004       -0.48611       -0.23611       -0.15278
 BRILLOUIN|   338           0.00004       -0.48611       -0.23611       -0.12500
 BRILLOUIN|   339           0.00004       -0.48611       -0.23611       -0.09722
 BRILLOUIN|   340           0.00004       -0.48611       -0.23611       -0.06944
 BRILLOUIN|   341           0.00004       -0.48611       -0.23611       -0.04167
 BRILLOUIN|   342           0.00004       -0.48611       -0.23611       -0.01389
 BRILLOUIN|   343           0.00004       -0.48611       -0.23611        0.01389
 BRILLOUIN|   344           0.00004       -0.48611       -0.23611        0.04167
 BRILLOUIN|   345           0.00004       -0.48611       -0.23611        0.06944
 BRILLOUIN|   346           0.00004       -0.48611       -0.23611        0.09722
 BRILLOUIN|   347           0.00004       -0.48611       -0.23611        0.12500
 BRILLOUIN|   348           0.00004       -0.48611       -0.23611        0.15278
 BRILLOUIN|   349           0.00004       -0.48611       -0.23611        0.18056
 BRILLOUIN|   350           0.00004       -0.48611       -0.23611        0.20833
 BRILLOUIN|   351           0.00004       -0.48611       -0.23611        0.23611
 BRILLOUIN|   352           0.00004       -0.48611       -0.23611        0.26389
 BRILLOUIN|   353           0.00004       -0.48611       -0.23611        0.29167
 BRILLOUIN|   354           0.00004       -0.48611       -0.23611        0.31944
 BRILLOUIN|   355           0.00004       -0.48611       -0.23611        0.34722
 BRILLOUIN|   356           0.00004       -0.48611       -0.23611        0.37500
 BRILLOUIN|   357           0.00004       -0.48611       -0.23611        0.40278
 BRILLOUIN|   358           0.00004       -0.48611       -0.23611        0.43056
 BRILLOUIN|   359           0.00004       -0.48611       -0.23611        0.45833
 BRILLOUIN|   360           0.00004       -0.48611       -0.23611        0.48611
 BRILLOUIN|   361           0.00004       -0.48611       -0.20833       -0.48611
 BRILLOUIN|   362           0.00004       -0.48611       -0.20833       -0.45833
 BRILLOUIN|   363           0.00004       -0.48611       -0.20833       -0.43056
 BRILLOUIN|   364           0.00004       -0.48611       -0.20833       -0.40278
 BRILLOUIN|   365           0.00004       -0.48611       -0.20833       -0.37500
 BRILLOUIN|   366           0.00004       -0.48611       -0.20833       -0.34722
 BRILLOUIN|   367           0.00004       -0.48611       -0.20833       -0.31944
 BRILLOUIN|   368           0.00004       -0.48611       -0.20833       -0.29167
 BRILLOUIN|   369           0.00004       -0.48611       -0.20833       -0.26389
 BRILLOUIN|   370           0.00004       -0.48611       -0.20833       -0.23611
 BRILLOUIN|   371           0.00004       -0.48611       -0.20833       -0.20833
 BRILLOUIN|   372           0.00004       -0.48611       -0.20833       -0.18056
 BRILLOUIN|   373           0.00004       -0.48611       -0.20833       -0.15278
 BRILLOUIN|   374           0.00004       -0.48611       -0.20833       -0.12500
 BRILLOUIN|   375           0.00004       -0.48611       -0.20833       -0.09722
 BRILLOUIN|   376           0.00004       -0.48611       -0.20833       -0.06944
 BRILLOUIN|   377           0.00004       -0.48611       -0.20833       -0.04167
 BRILLOUIN|   378           0.00004       -0.48611       -0.20833       -0.01389
 BRILLOUIN|   379           0.00004       -0.48611       -0.20833        0.01389
 BRILLOUIN|   380           0.00004       -0.48611       -0.20833        0.04167
 BRILLOUIN|   381           0.00004       -0.48611       -0.20833        0.06944
 BRILLOUIN|   382           0.00004       -0.48611       -0.20833        0.09722
 BRILLOUIN|   383           0.00004       -0.48611       -0.20833        0.12500
 BRILLOUIN|   384           0.00004       -0.48611       -0.20833        0.15278
 BRILLOUIN|   385           0.00004       -0.48611       -0.20833        0.18056
 BRILLOUIN|   386           0.00004       -0.48611       -0.20833        0.20833
 BRILLOUIN|   387           0.00004       -0.48611       -0.20833        0.23611
 BRILLOUIN|   388           0.00004       -0.48611       -0.20833        0.26389
 BRILLOUIN|   389           0.00004       -0.48611       -0.20833        0.29167
 BRILLOUIN|   390           0.00004       -0.48611       -0.20833        0.31944
 BRILLOUIN|   391           0.00004       -0.48611       -0.20833        0.34722
 BRILLOUIN|   392           0.00004       -0.48611       -0.20833        0.37500
 BRILLOUIN|   393           0.00004       -0.48611       -0.20833        0.40278
 BRILLOUIN|   394           0.00004       -0.48611       -0.20833        0.43056
 BRILLOUIN|   395           0.00004       -0.48611       -0.20833        0.45833
 BRILLOUIN|   396           0.00004       -0.48611       -0.20833        0.48611
 BRILLOUIN|   397           0.00004       -0.48611       -0.18056       -0.48611
 BRILLOUIN|   398           0.00004       -0.48611       -0.18056       -0.45833
 BRILLOUIN|   399           0.00004       -0.48611       -0.18056       -0.43056
 BRILLOUIN|   400           0.00004       -0.48611       -0.18056       -0.40278
 BRILLOUIN|   401           0.00004       -0.48611       -0.18056       -0.37500
 BRILLOUIN|   402           0.00004       -0.48611       -0.18056       -0.34722
 BRILLOUIN|   403           0.00004       -0.48611       -0.18056       -0.31944
 BRILLOUIN|   404           0.00004       -0.48611       -0.18056       -0.29167
 BRILLOUIN|   405           0.00004       -0.48611       -0.18056       -0.26389
 BRILLOUIN|   406           0.00004       -0.48611       -0.18056       -0.23611
 BRILLOUIN|   407           0.00004       -0.48611       -0.18056       -0.20833
 BRILLOUIN|   408           0.00004       -0.48611       -0.18056       -0.18056
 BRILLOUIN|   409           0.00004       -0.48611       -0.18056       -0.15278
 BRILLOUIN|   410           0.00004       -0.48611       -0.18056       -0.12500
 BRILLOUIN|   411           0.00004       -0.48611       -0.18056       -0.09722
 BRILLOUIN|   412           0.00004       -0.48611       -0.18056       -0.06944
 BRILLOUIN|   413           0.00004       -0.48611       -0.18056       -0.04167
 BRILLOUIN|   414           0.00004       -0.48611       -0.18056       -0.01389
 BRILLOUIN|   415           0.00004       -0.48611       -0.18056        0.01389
 BRILLOUIN|   416           0.00004       -0.48611       -0.18056        0.04167
 BRILLOUIN|   417           0.00004       -0.48611       -0.18056        0.06944
 BRILLOUIN|   418           0.00004       -0.48611       -0.18056        0.09722
 BRILLOUIN|   419           0.00004       -0.48611       -0.18056        0.12500
 BRILLOUIN|   420           0.00004       -0.48611       -0.18056        0.15278
 BRILLOUIN|   421           0.00004       -0.48611       -0.18056        0.18056
 BRILLOUIN|   422           0.00004       -0.48611       -0.18056        0.20833
 BRILLOUIN|   423           0.00004       -0.48611       -0.18056        0.23611
 BRILLOUIN|   424           0.00004       -0.48611       -0.18056        0.26389
 BRILLOUIN|   425           0.00004       -0.48611       -0.18056        0.29167
 BRILLOUIN|   426           0.00004       -0.48611       -0.18056        0.31944
 BRILLOUIN|   427           0.00004       -0.48611       -0.18056        0.34722
 BRILLOUIN|   428           0.00004       -0.48611       -0.18056        0.37500
 BRILLOUIN|   429           0.00004       -0.48611       -0.18056        0.40278
 BRILLOUIN|   430           0.00004       -0.48611       -0.18056        0.43056
 BRILLOUIN|   431           0.00004       -0.48611       -0.18056        0.45833
 BRILLOUIN|   432           0.00004       -0.48611       -0.18056        0.48611
 BRILLOUIN|   433           0.00004       -0.48611       -0.15278       -0.48611
 BRILLOUIN|   434           0.00004       -0.48611       -0.15278       -0.45833
 BRILLOUIN|   435           0.00004       -0.48611       -0.15278       -0.43056
 BRILLOUIN|   436           0.00004       -0.48611       -0.15278       -0.40278
 BRILLOUIN|   437           0.00004       -0.48611       -0.15278       -0.37500
 BRILLOUIN|   438           0.00004       -0.48611       -0.15278       -0.34722
 BRILLOUIN|   439           0.00004       -0.48611       -0.15278       -0.31944
 BRILLOUIN|   440           0.00004       -0.48611       -0.15278       -0.29167
 BRILLOUIN|   441           0.00004       -0.48611       -0.15278       -0.26389
 BRILLOUIN|   442           0.00004       -0.48611       -0.15278       -0.23611
 BRILLOUIN|   443           0.00004       -0.48611       -0.15278       -0.20833
 BRILLOUIN|   444           0.00004       -0.48611       -0.15278       -0.18056
 BRILLOUIN|   445           0.00004       -0.48611       -0.15278       -0.15278
 BRILLOUIN|   446           0.00004       -0.48611       -0.15278       -0.12500
 BRILLOUIN|   447           0.00004       -0.48611       -0.15278       -0.09722
 BRILLOUIN|   448           0.00004       -0.48611       -0.15278       -0.06944
 BRILLOUIN|   449           0.00004       -0.48611       -0.15278       -0.04167
 BRILLOUIN|   450           0.00004       -0.48611       -0.15278       -0.01389
 BRILLOUIN|   451           0.00004       -0.48611       -0.15278        0.01389
 BRILLOUIN|   452           0.00004       -0.48611       -0.15278        0.04167
 BRILLOUIN|   453           0.00004       -0.48611       -0.15278        0.06944
 BRILLOUIN|   454           0.00004       -0.48611       -0.15278        0.09722
 BRILLOUIN|   455           0.00004       -0.48611       -0.15278        0.12500
 BRILLOUIN|   456           0.00004       -0.48611       -0.15278        0.15278
 BRILLOUIN|   457           0.00004       -0.48611       -0.15278        0.18056
 BRILLOUIN|   458           0.00004       -0.48611       -0.15278        0.20833
 BRILLOUIN|   459           0.00004       -0.48611       -0.15278        0.23611
 BRILLOUIN|   460           0.00004       -0.48611       -0.15278        0.26389
 BRILLOUIN|   461           0.00004       -0.48611       -0.15278        0.29167
 BRILLOUIN|   462           0.00004       -0.48611       -0.15278        0.31944
 BRILLOUIN|   463           0.00004       -0.48611       -0.15278        0.34722
 BRILLOUIN|   464           0.00004       -0.48611       -0.15278        0.37500
 BRILLOUIN|   465           0.00004       -0.48611       -0.15278        0.40278
 BRILLOUIN|   466           0.00004       -0.48611       -0.15278        0.43056
 BRILLOUIN|   467           0.00004       -0.48611       -0.15278        0.45833
 BRILLOUIN|   468           0.00004       -0.48611       -0.15278        0.48611
 BRILLOUIN|   469           0.00004       -0.48611       -0.12500       -0.48611
 BRILLOUIN|   470           0.00004       -0.48611       -0.12500       -0.45833
 BRILLOUIN|   471           0.00004       -0.48611       -0.12500       -0.43056
 BRILLOUIN|   472           0.00004       -0.48611       -0.12500       -0.40278
 BRILLOUIN|   473           0.00004       -0.48611       -0.12500       -0.37500
 BRILLOUIN|   474           0.00004       -0.48611       -0.12500       -0.34722
 BRILLOUIN|   475           0.00004       -0.48611       -0.12500       -0.31944
 BRILLOUIN|   476           0.00004       -0.48611       -0.12500       -0.29167
 BRILLOUIN|   477           0.00004       -0.48611       -0.12500       -0.26389
 BRILLOUIN|   478           0.00004       -0.48611       -0.12500       -0.23611
 BRILLOUIN|   479           0.00004       -0.48611       -0.12500       -0.20833
 BRILLOUIN|   480           0.00004       -0.48611       -0.12500       -0.18056
 BRILLOUIN|   481           0.00004       -0.48611       -0.12500       -0.15278
 BRILLOUIN|   482           0.00004       -0.48611       -0.12500       -0.12500
 BRILLOUIN|   483           0.00004       -0.48611       -0.12500       -0.09722
 BRILLOUIN|   484           0.00004       -0.48611       -0.12500       -0.06944
 BRILLOUIN|   485           0.00004       -0.48611       -0.12500       -0.04167
 BRILLOUIN|   486           0.00004       -0.48611       -0.12500       -0.01389
 BRILLOUIN|   487           0.00004       -0.48611       -0.12500        0.01389
 BRILLOUIN|   488           0.00004       -0.48611       -0.12500        0.04167
 BRILLOUIN|   489           0.00004       -0.48611       -0.12500        0.06944
 BRILLOUIN|   490           0.00004       -0.48611       -0.12500        0.09722
 BRILLOUIN|   491           0.00004       -0.48611       -0.12500        0.12500
 BRILLOUIN|   492           0.00004       -0.48611       -0.12500        0.15278
 BRILLOUIN|   493           0.00004       -0.48611       -0.12500        0.18056
 BRILLOUIN|   494           0.00004       -0.48611       -0.12500        0.20833
 BRILLOUIN|   495           0.00004       -0.48611       -0.12500        0.23611
 BRILLOUIN|   496           0.00004       -0.48611       -0.12500        0.26389
 BRILLOUIN|   497           0.00004       -0.48611       -0.12500        0.29167
 BRILLOUIN|   498           0.00004       -0.48611       -0.12500        0.31944
 BRILLOUIN|   499           0.00004       -0.48611       -0.12500        0.34722
 BRILLOUIN|   500           0.00004       -0.48611       -0.12500        0.37500
 BRILLOUIN|   501           0.00004       -0.48611       -0.12500        0.40278
 BRILLOUIN|   502           0.00004       -0.48611       -0.12500        0.43056
 BRILLOUIN|   503           0.00004       -0.48611       -0.12500        0.45833
 BRILLOUIN|   504           0.00004       -0.48611       -0.12500        0.48611
 BRILLOUIN|   505           0.00004       -0.48611       -0.09722       -0.48611
 BRILLOUIN|   506           0.00004       -0.48611       -0.09722       -0.45833
 BRILLOUIN|   507           0.00004       -0.48611       -0.09722       -0.43056
 BRILLOUIN|   508           0.00004       -0.48611       -0.09722       -0.40278
 BRILLOUIN|   509           0.00004       -0.48611       -0.09722       -0.37500
 BRILLOUIN|   510           0.00004       -0.48611       -0.09722       -0.34722
 BRILLOUIN|   511           0.00004       -0.48611       -0.09722       -0.31944
 BRILLOUIN|   512           0.00004       -0.48611       -0.09722       -0.29167
 BRILLOUIN|   513           0.00004       -0.48611       -0.09722       -0.26389
 BRILLOUIN|   514           0.00004       -0.48611       -0.09722       -0.23611
 BRILLOUIN|   515           0.00004       -0.48611       -0.09722       -0.20833
 BRILLOUIN|   516           0.00004       -0.48611       -0.09722       -0.18056
 BRILLOUIN|   517           0.00004       -0.48611       -0.09722       -0.15278
 BRILLOUIN|   518           0.00004       -0.48611       -0.09722       -0.12500
 BRILLOUIN|   519           0.00004       -0.48611       -0.09722       -0.09722
 BRILLOUIN|   520           0.00004       -0.48611       -0.09722       -0.06944
 BRILLOUIN|   521           0.00004       -0.48611       -0.09722       -0.04167
 BRILLOUIN|   522           0.00004       -0.48611       -0.09722       -0.01389
 BRILLOUIN|   523           0.00004       -0.48611       -0.09722        0.01389
 BRILLOUIN|   524           0.00004       -0.48611       -0.09722        0.04167
 BRILLOUIN|   525           0.00004       -0.48611       -0.09722        0.06944
 BRILLOUIN|   526           0.00004       -0.48611       -0.09722        0.09722
 BRILLOUIN|   527           0.00004       -0.48611       -0.09722        0.12500
 BRILLOUIN|   528           0.00004       -0.48611       -0.09722        0.15278
 BRILLOUIN|   529           0.00004       -0.48611       -0.09722        0.18056
 BRILLOUIN|   530           0.00004       -0.48611       -0.09722        0.20833
 BRILLOUIN|   531           0.00004       -0.48611       -0.09722        0.23611
 BRILLOUIN|   532           0.00004       -0.48611       -0.09722        0.26389
 BRILLOUIN|   533           0.00004       -0.48611       -0.09722        0.29167
 BRILLOUIN|   534           0.00004       -0.48611       -0.09722        0.31944
 BRILLOUIN|   535           0.00004       -0.48611       -0.09722        0.34722
 BRILLOUIN|   536           0.00004       -0.48611       -0.09722        0.37500
 BRILLOUIN|   537           0.00004       -0.48611       -0.09722        0.40278
 BRILLOUIN|   538           0.00004       -0.48611       -0.09722        0.43056
 BRILLOUIN|   539           0.00004       -0.48611       -0.09722        0.45833
 BRILLOUIN|   540           0.00004       -0.48611       -0.09722        0.48611
 BRILLOUIN|   541           0.00004       -0.48611       -0.06944       -0.48611
 BRILLOUIN|   542           0.00004       -0.48611       -0.06944       -0.45833
 BRILLOUIN|   543           0.00004       -0.48611       -0.06944       -0.43056
 BRILLOUIN|   544           0.00004       -0.48611       -0.06944       -0.40278
 BRILLOUIN|   545           0.00004       -0.48611       -0.06944       -0.37500
 BRILLOUIN|   546           0.00004       -0.48611       -0.06944       -0.34722
 BRILLOUIN|   547           0.00004       -0.48611       -0.06944       -0.31944
 BRILLOUIN|   548           0.00004       -0.48611       -0.06944       -0.29167
 BRILLOUIN|   549           0.00004       -0.48611       -0.06944       -0.26389
 BRILLOUIN|   550           0.00004       -0.48611       -0.06944       -0.23611
 BRILLOUIN|   551           0.00004       -0.48611       -0.06944       -0.20833
 BRILLOUIN|   552           0.00004       -0.48611       -0.06944       -0.18056
 BRILLOUIN|   553           0.00004       -0.48611       -0.06944       -0.15278
 BRILLOUIN|   554           0.00004       -0.48611       -0.06944       -0.12500
 BRILLOUIN|   555           0.00004       -0.48611       -0.06944       -0.09722
 BRILLOUIN|   556           0.00004       -0.48611       -0.06944       -0.06944
 BRILLOUIN|   557           0.00004       -0.48611       -0.06944       -0.04167
 BRILLOUIN|   558           0.00004       -0.48611       -0.06944       -0.01389
 BRILLOUIN|   559           0.00004       -0.48611       -0.06944        0.01389
 BRILLOUIN|   560           0.00004       -0.48611       -0.06944        0.04167
 BRILLOUIN|   561           0.00004       -0.48611       -0.06944        0.06944
 BRILLOUIN|   562           0.00004       -0.48611       -0.06944        0.09722
 BRILLOUIN|   563           0.00004       -0.48611       -0.06944        0.12500
 BRILLOUIN|   564           0.00004       -0.48611       -0.06944        0.15278
 BRILLOUIN|   565           0.00004       -0.48611       -0.06944        0.18056
 BRILLOUIN|   566           0.00004       -0.48611       -0.06944        0.20833
 BRILLOUIN|   567           0.00004       -0.48611       -0.06944        0.23611
 BRILLOUIN|   568           0.00004       -0.48611       -0.06944        0.26389
 BRILLOUIN|   569           0.00004       -0.48611       -0.06944        0.29167
 BRILLOUIN|   570           0.00004       -0.48611       -0.06944        0.31944
 BRILLOUIN|   571           0.00004       -0.48611       -0.06944        0.34722
 BRILLOUIN|   572           0.00004       -0.48611       -0.06944        0.37500
 BRILLOUIN|   573           0.00004       -0.48611       -0.06944        0.40278
 BRILLOUIN|   574           0.00004       -0.48611       -0.06944        0.43056
 BRILLOUIN|   575           0.00004       -0.48611       -0.06944        0.45833
 BRILLOUIN|   576           0.00004       -0.48611       -0.06944        0.48611
 BRILLOUIN|   577           0.00004       -0.48611       -0.04167       -0.48611
 BRILLOUIN|   578           0.00004       -0.48611       -0.04167       -0.45833
 BRILLOUIN|   579           0.00004       -0.48611       -0.04167       -0.43056
 BRILLOUIN|   580           0.00004       -0.48611       -0.04167       -0.40278
 BRILLOUIN|   581           0.00004       -0.48611       -0.04167       -0.37500
 BRILLOUIN|   582           0.00004       -0.48611       -0.04167       -0.34722
 BRILLOUIN|   583           0.00004       -0.48611       -0.04167       -0.31944
 BRILLOUIN|   584           0.00004       -0.48611       -0.04167       -0.29167
 BRILLOUIN|   585           0.00004       -0.48611       -0.04167       -0.26389
 BRILLOUIN|   586           0.00004       -0.48611       -0.04167       -0.23611
 BRILLOUIN|   587           0.00004       -0.48611       -0.04167       -0.20833
 BRILLOUIN|   588           0.00004       -0.48611       -0.04167       -0.18056
 BRILLOUIN|   589           0.00004       -0.48611       -0.04167       -0.15278
 BRILLOUIN|   590           0.00004       -0.48611       -0.04167       -0.12500
 BRILLOUIN|   591           0.00004       -0.48611       -0.04167       -0.09722
 BRILLOUIN|   592           0.00004       -0.48611       -0.04167       -0.06944
 BRILLOUIN|   593           0.00004       -0.48611       -0.04167       -0.04167
 BRILLOUIN|   594           0.00004       -0.48611       -0.04167       -0.01389
 BRILLOUIN|   595           0.00004       -0.48611       -0.04167        0.01389
 BRILLOUIN|   596           0.00004       -0.48611       -0.04167        0.04167
 BRILLOUIN|   597           0.00004       -0.48611       -0.04167        0.06944
 BRILLOUIN|   598           0.00004       -0.48611       -0.04167        0.09722
 BRILLOUIN|   599           0.00004       -0.48611       -0.04167        0.12500
 BRILLOUIN|   600           0.00004       -0.48611       -0.04167        0.15278
 BRILLOUIN|   601           0.00004       -0.48611       -0.04167        0.18056
 BRILLOUIN|   602           0.00004       -0.48611       -0.04167        0.20833
 BRILLOUIN|   603           0.00004       -0.48611       -0.04167        0.23611
 BRILLOUIN|   604           0.00004       -0.48611       -0.04167        0.26389
 BRILLOUIN|   605           0.00004       -0.48611       -0.04167        0.29167
 BRILLOUIN|   606           0.00004       -0.48611       -0.04167        0.31944
 BRILLOUIN|   607           0.00004       -0.48611       -0.04167        0.34722
 BRILLOUIN|   608           0.00004       -0.48611       -0.04167        0.37500
 BRILLOUIN|   609           0.00004       -0.48611       -0.04167        0.40278
 BRILLOUIN|   610           0.00004       -0.48611       -0.04167        0.43056
 BRILLOUIN|   611           0.00004       -0.48611       -0.04167        0.45833
 BRILLOUIN|   612           0.00004       -0.48611       -0.04167        0.48611
 BRILLOUIN|   613           0.00004       -0.48611       -0.01389       -0.48611
 BRILLOUIN|   614           0.00004       -0.48611       -0.01389       -0.45833
 BRILLOUIN|   615           0.00004       -0.48611       -0.01389       -0.43056
 BRILLOUIN|   616           0.00004       -0.48611       -0.01389       -0.40278
 BRILLOUIN|   617           0.00004       -0.48611       -0.01389       -0.37500
 BRILLOUIN|   618           0.00004       -0.48611       -0.01389       -0.34722
 BRILLOUIN|   619           0.00004       -0.48611       -0.01389       -0.31944
 BRILLOUIN|   620           0.00004       -0.48611       -0.01389       -0.29167
 BRILLOUIN|   621           0.00004       -0.48611       -0.01389       -0.26389
 BRILLOUIN|   622           0.00004       -0.48611       -0.01389       -0.23611
 BRILLOUIN|   623           0.00004       -0.48611       -0.01389       -0.20833
 BRILLOUIN|   624           0.00004       -0.48611       -0.01389       -0.18056
 BRILLOUIN|   625           0.00004       -0.48611       -0.01389       -0.15278
 BRILLOUIN|   626           0.00004       -0.48611       -0.01389       -0.12500
 BRILLOUIN|   627           0.00004       -0.48611       -0.01389       -0.09722
 BRILLOUIN|   628           0.00004       -0.48611       -0.01389       -0.06944
 BRILLOUIN|   629           0.00004       -0.48611       -0.01389       -0.04167
 BRILLOUIN|   630           0.00004       -0.48611       -0.01389       -0.01389
 BRILLOUIN|   631           0.00004       -0.48611       -0.01389        0.01389
 BRILLOUIN|   632           0.00004       -0.48611       -0.01389        0.04167
 BRILLOUIN|   633           0.00004       -0.48611       -0.01389        0.06944
 BRILLOUIN|   634           0.00004       -0.48611       -0.01389        0.09722
 BRILLOUIN|   635           0.00004       -0.48611       -0.01389        0.12500
 BRILLOUIN|   636           0.00004       -0.48611       -0.01389        0.15278
 BRILLOUIN|   637           0.00004       -0.48611       -0.01389        0.18056
 BRILLOUIN|   638           0.00004       -0.48611       -0.01389        0.20833
 BRILLOUIN|   639           0.00004       -0.48611       -0.01389        0.23611
 BRILLOUIN|   640           0.00004       -0.48611       -0.01389        0.26389
 BRILLOUIN|   641           0.00004       -0.48611       -0.01389        0.29167
 BRILLOUIN|   642           0.00004       -0.48611       -0.01389        0.31944
 BRILLOUIN|   643           0.00004       -0.48611       -0.01389        0.34722
 BRILLOUIN|   644           0.00004       -0.48611       -0.01389        0.37500
 BRILLOUIN|   645           0.00004       -0.48611       -0.01389        0.40278
 BRILLOUIN|   646           0.00004       -0.48611       -0.01389        0.43056
 BRILLOUIN|   647           0.00004       -0.48611       -0.01389        0.45833
 BRILLOUIN|   648           0.00004       -0.48611       -0.01389        0.48611
 BRILLOUIN|   649           0.00004       -0.48611        0.01389       -0.48611
 BRILLOUIN|   650           0.00004       -0.48611        0.01389       -0.45833
 BRILLOUIN|   651           0.00004       -0.48611        0.01389       -0.43056
 BRILLOUIN|   652           0.00004       -0.48611        0.01389       -0.40278
 BRILLOUIN|   653           0.00004       -0.48611        0.01389       -0.37500
 BRILLOUIN|   654           0.00004       -0.48611        0.01389       -0.34722
 BRILLOUIN|   655           0.00004       -0.48611        0.01389       -0.31944
 BRILLOUIN|   656           0.00004       -0.48611        0.01389       -0.29167
 BRILLOUIN|   657           0.00004       -0.48611        0.01389       -0.26389
 BRILLOUIN|   658           0.00004       -0.48611        0.01389       -0.23611
 BRILLOUIN|   659           0.00004       -0.48611        0.01389       -0.20833
 BRILLOUIN|   660           0.00004       -0.48611        0.01389       -0.18056
 BRILLOUIN|   661           0.00004       -0.48611        0.01389       -0.15278
 BRILLOUIN|   662           0.00004       -0.48611        0.01389       -0.12500
 BRILLOUIN|   663           0.00004       -0.48611        0.01389       -0.09722
 BRILLOUIN|   664           0.00004       -0.48611        0.01389       -0.06944
 BRILLOUIN|   665           0.00004       -0.48611        0.01389       -0.04167
 BRILLOUIN|   666           0.00004       -0.48611        0.01389       -0.01389
 BRILLOUIN|   667           0.00004       -0.48611        0.01389        0.01389
 BRILLOUIN|   668           0.00004       -0.48611        0.01389        0.04167
 BRILLOUIN|   669           0.00004       -0.48611        0.01389        0.06944
 BRILLOUIN|   670           0.00004       -0.48611        0.01389        0.09722
 BRILLOUIN|   671           0.00004       -0.48611        0.01389        0.12500
 BRILLOUIN|   672           0.00004       -0.48611        0.01389        0.15278
 BRILLOUIN|   673           0.00004       -0.48611        0.01389        0.18056
 BRILLOUIN|   674           0.00004       -0.48611        0.01389        0.20833
 BRILLOUIN|   675           0.00004       -0.48611        0.01389        0.23611
 BRILLOUIN|   676           0.00004       -0.48611        0.01389        0.26389
 BRILLOUIN|   677           0.00004       -0.48611        0.01389        0.29167
 BRILLOUIN|   678           0.00004       -0.48611        0.01389        0.31944
 BRILLOUIN|   679           0.00004       -0.48611        0.01389        0.34722
 BRILLOUIN|   680           0.00004       -0.48611        0.01389        0.37500
 BRILLOUIN|   681           0.00004       -0.48611        0.01389        0.40278
 BRILLOUIN|   682           0.00004       -0.48611        0.01389        0.43056
 BRILLOUIN|   683           0.00004       -0.48611        0.01389        0.45833
 BRILLOUIN|   684           0.00004       -0.48611        0.01389        0.48611
 BRILLOUIN|   685           0.00004       -0.48611        0.04167       -0.48611
 BRILLOUIN|   686           0.00004       -0.48611        0.04167       -0.45833
 BRILLOUIN|   687           0.00004       -0.48611        0.04167       -0.43056
 BRILLOUIN|   688           0.00004       -0.48611        0.04167       -0.40278
 BRILLOUIN|   689           0.00004       -0.48611        0.04167       -0.37500
 BRILLOUIN|   690           0.00004       -0.48611        0.04167       -0.34722
 BRILLOUIN|   691           0.00004       -0.48611        0.04167       -0.31944
 BRILLOUIN|   692           0.00004       -0.48611        0.04167       -0.29167
 BRILLOUIN|   693           0.00004       -0.48611        0.04167       -0.26389
 BRILLOUIN|   694           0.00004       -0.48611        0.04167       -0.23611
 BRILLOUIN|   695           0.00004       -0.48611        0.04167       -0.20833
 BRILLOUIN|   696           0.00004       -0.48611        0.04167       -0.18056
 BRILLOUIN|   697           0.00004       -0.48611        0.04167       -0.15278
 BRILLOUIN|   698           0.00004       -0.48611        0.04167       -0.12500
 BRILLOUIN|   699           0.00004       -0.48611        0.04167       -0.09722
 BRILLOUIN|   700           0.00004       -0.48611        0.04167       -0.06944
 BRILLOUIN|   701           0.00004       -0.48611        0.04167       -0.04167
 BRILLOUIN|   702           0.00004       -0.48611        0.04167       -0.01389
 BRILLOUIN|   703           0.00004       -0.48611        0.04167        0.01389
 BRILLOUIN|   704           0.00004       -0.48611        0.04167        0.04167
 BRILLOUIN|   705           0.00004       -0.48611        0.04167        0.06944
 BRILLOUIN|   706           0.00004       -0.48611        0.04167        0.09722
 BRILLOUIN|   707           0.00004       -0.48611        0.04167        0.12500
 BRILLOUIN|   708           0.00004       -0.48611        0.04167        0.15278
 BRILLOUIN|   709           0.00004       -0.48611        0.04167        0.18056
 BRILLOUIN|   710           0.00004       -0.48611        0.04167        0.20833
 BRILLOUIN|   711           0.00004       -0.48611        0.04167        0.23611
 BRILLOUIN|   712           0.00004       -0.48611        0.04167        0.26389
 BRILLOUIN|   713           0.00004       -0.48611        0.04167        0.29167
 BRILLOUIN|   714           0.00004       -0.48611        0.04167        0.31944
 BRILLOUIN|   715           0.00004       -0.48611        0.04167        0.34722
 BRILLOUIN|   716           0.00004       -0.48611        0.04167        0.37500
 BRILLOUIN|   717           0.00004       -0.48611        0.04167        0.40278
 BRILLOUIN|   718           0.00004       -0.48611        0.04167        0.43056
 BRILLOUIN|   719           0.00004       -0.48611        0.04167        0.45833
 BRILLOUIN|   720           0.00004       -0.48611        0.04167        0.48611
 BRILLOUIN|   721           0.00004       -0.48611        0.06944       -0.48611
 BRILLOUIN|   722           0.00004       -0.48611        0.06944       -0.45833
 BRILLOUIN|   723           0.00004       -0.48611        0.06944       -0.43056
 BRILLOUIN|   724           0.00004       -0.48611        0.06944       -0.40278
 BRILLOUIN|   725           0.00004       -0.48611        0.06944       -0.37500
 BRILLOUIN|   726           0.00004       -0.48611        0.06944       -0.34722
 BRILLOUIN|   727           0.00004       -0.48611        0.06944       -0.31944
 BRILLOUIN|   728           0.00004       -0.48611        0.06944       -0.29167
 BRILLOUIN|   729           0.00004       -0.48611        0.06944       -0.26389
 BRILLOUIN|   730           0.00004       -0.48611        0.06944       -0.23611
 BRILLOUIN|   731           0.00004       -0.48611        0.06944       -0.20833
 BRILLOUIN|   732           0.00004       -0.48611        0.06944       -0.18056
 BRILLOUIN|   733           0.00004       -0.48611        0.06944       -0.15278
 BRILLOUIN|   734           0.00004       -0.48611        0.06944       -0.12500
 BRILLOUIN|   735           0.00004       -0.48611        0.06944       -0.09722
 BRILLOUIN|   736           0.00004       -0.48611        0.06944       -0.06944
 BRILLOUIN|   737           0.00004       -0.48611        0.06944       -0.04167
 BRILLOUIN|   738           0.00004       -0.48611        0.06944       -0.01389
 BRILLOUIN|   739           0.00004       -0.48611        0.06944        0.01389
 BRILLOUIN|   740           0.00004       -0.48611        0.06944        0.04167
 BRILLOUIN|   741           0.00004       -0.48611        0.06944        0.06944
 BRILLOUIN|   742           0.00004       -0.48611        0.06944        0.09722
 BRILLOUIN|   743           0.00004       -0.48611        0.06944        0.12500
 BRILLOUIN|   744           0.00004       -0.48611        0.06944        0.15278
 BRILLOUIN|   745           0.00004       -0.48611        0.06944        0.18056
 BRILLOUIN|   746           0.00004       -0.48611        0.06944        0.20833
 BRILLOUIN|   747           0.00004       -0.48611        0.06944        0.23611
 BRILLOUIN|   748           0.00004       -0.48611        0.06944        0.26389
 BRILLOUIN|   749           0.00004       -0.48611        0.06944        0.29167
 BRILLOUIN|   750           0.00004       -0.48611        0.06944        0.31944
 BRILLOUIN|   751           0.00004       -0.48611        0.06944        0.34722
 BRILLOUIN|   752           0.00004       -0.48611        0.06944        0.37500
 BRILLOUIN|   753           0.00004       -0.48611        0.06944        0.40278
 BRILLOUIN|   754           0.00004       -0.48611        0.06944        0.43056
 BRILLOUIN|   755           0.00004       -0.48611        0.06944        0.45833
 BRILLOUIN|   756           0.00004       -0.48611        0.06944        0.48611
 BRILLOUIN|   757           0.00004       -0.48611        0.09722       -0.48611
 BRILLOUIN|   758           0.00004       -0.48611        0.09722       -0.45833
 BRILLOUIN|   759           0.00004       -0.48611        0.09722       -0.43056
 BRILLOUIN|   760           0.00004       -0.48611        0.09722       -0.40278
 BRILLOUIN|   761           0.00004       -0.48611        0.09722       -0.37500
 BRILLOUIN|   762           0.00004       -0.48611        0.09722       -0.34722
 BRILLOUIN|   763           0.00004       -0.48611        0.09722       -0.31944
 BRILLOUIN|   764           0.00004       -0.48611        0.09722       -0.29167
 BRILLOUIN|   765           0.00004       -0.48611        0.09722       -0.26389
 BRILLOUIN|   766           0.00004       -0.48611        0.09722       -0.23611
 BRILLOUIN|   767           0.00004       -0.48611        0.09722       -0.20833
 BRILLOUIN|   768           0.00004       -0.48611        0.09722       -0.18056
 BRILLOUIN|   769           0.00004       -0.48611        0.09722       -0.15278
 BRILLOUIN|   770           0.00004       -0.48611        0.09722       -0.12500
 BRILLOUIN|   771           0.00004       -0.48611        0.09722       -0.09722
 BRILLOUIN|   772           0.00004       -0.48611        0.09722       -0.06944
 BRILLOUIN|   773           0.00004       -0.48611        0.09722       -0.04167
 BRILLOUIN|   774           0.00004       -0.48611        0.09722       -0.01389
 BRILLOUIN|   775           0.00004       -0.48611        0.09722        0.01389
 BRILLOUIN|   776           0.00004       -0.48611        0.09722        0.04167
 BRILLOUIN|   777           0.00004       -0.48611        0.09722        0.06944
 BRILLOUIN|   778           0.00004       -0.48611        0.09722        0.09722
 BRILLOUIN|   779           0.00004       -0.48611        0.09722        0.12500
 BRILLOUIN|   780           0.00004       -0.48611        0.09722        0.15278
 BRILLOUIN|   781           0.00004       -0.48611        0.09722        0.18056
 BRILLOUIN|   782           0.00004       -0.48611        0.09722        0.20833
 BRILLOUIN|   783           0.00004       -0.48611        0.09722        0.23611
 BRILLOUIN|   784           0.00004       -0.48611        0.09722        0.26389
 BRILLOUIN|   785           0.00004       -0.48611        0.09722        0.29167
 BRILLOUIN|   786           0.00004       -0.48611        0.09722        0.31944
 BRILLOUIN|   787           0.00004       -0.48611        0.09722        0.34722
 BRILLOUIN|   788           0.00004       -0.48611        0.09722        0.37500
 BRILLOUIN|   789           0.00004       -0.48611        0.09722        0.40278
 BRILLOUIN|   790           0.00004       -0.48611        0.09722        0.43056
 BRILLOUIN|   791           0.00004       -0.48611        0.09722        0.45833
 BRILLOUIN|   792           0.00004       -0.48611        0.09722        0.48611
 BRILLOUIN|   793           0.00004       -0.48611        0.12500       -0.48611
 BRILLOUIN|   794           0.00004       -0.48611        0.12500       -0.45833
 BRILLOUIN|   795           0.00004       -0.48611        0.12500       -0.43056
 BRILLOUIN|   796           0.00004       -0.48611        0.12500       -0.40278
 BRILLOUIN|   797           0.00004       -0.48611        0.12500       -0.37500
 BRILLOUIN|   798           0.00004       -0.48611        0.12500       -0.34722
 BRILLOUIN|   799           0.00004       -0.48611        0.12500       -0.31944
 BRILLOUIN|   800           0.00004       -0.48611        0.12500       -0.29167
 BRILLOUIN|   801           0.00004       -0.48611        0.12500       -0.26389
 BRILLOUIN|   802           0.00004       -0.48611        0.12500       -0.23611
 BRILLOUIN|   803           0.00004       -0.48611        0.12500       -0.20833
 BRILLOUIN|   804           0.00004       -0.48611        0.12500       -0.18056
 BRILLOUIN|   805           0.00004       -0.48611        0.12500       -0.15278
 BRILLOUIN|   806           0.00004       -0.48611        0.12500       -0.12500
 BRILLOUIN|   807           0.00004       -0.48611        0.12500       -0.09722
 BRILLOUIN|   808           0.00004       -0.48611        0.12500       -0.06944
 BRILLOUIN|   809           0.00004       -0.48611        0.12500       -0.04167
 BRILLOUIN|   810           0.00004       -0.48611        0.12500       -0.01389
 BRILLOUIN|   811           0.00004       -0.48611        0.12500        0.01389
 BRILLOUIN|   812           0.00004       -0.48611        0.12500        0.04167
 BRILLOUIN|   813           0.00004       -0.48611        0.12500        0.06944
 BRILLOUIN|   814           0.00004       -0.48611        0.12500        0.09722
 BRILLOUIN|   815           0.00004       -0.48611        0.12500        0.12500
 BRILLOUIN|   816           0.00004       -0.48611        0.12500        0.15278
 BRILLOUIN|   817           0.00004       -0.48611        0.12500        0.18056
 BRILLOUIN|   818           0.00004       -0.48611        0.12500        0.20833
 BRILLOUIN|   819           0.00004       -0.48611        0.12500        0.23611
 BRILLOUIN|   820           0.00004       -0.48611        0.12500        0.26389
 BRILLOUIN|   821           0.00004       -0.48611        0.12500        0.29167
 BRILLOUIN|   822           0.00004       -0.48611        0.12500        0.31944
 BRILLOUIN|   823           0.00004       -0.48611        0.12500        0.34722
 BRILLOUIN|   824           0.00004       -0.48611        0.12500        0.37500
 BRILLOUIN|   825           0.00004       -0.48611        0.12500        0.40278
 BRILLOUIN|   826           0.00004       -0.48611        0.12500        0.43056
 BRILLOUIN|   827           0.00004       -0.48611        0.12500        0.45833
 BRILLOUIN|   828           0.00004       -0.48611        0.12500        0.48611
 BRILLOUIN|   829           0.00004       -0.48611        0.15278       -0.48611
 BRILLOUIN|   830           0.00004       -0.48611        0.15278       -0.45833
 BRILLOUIN|   831           0.00004       -0.48611        0.15278       -0.43056
 BRILLOUIN|   832           0.00004       -0.48611        0.15278       -0.40278
 BRILLOUIN|   833           0.00004       -0.48611        0.15278       -0.37500
 BRILLOUIN|   834           0.00004       -0.48611        0.15278       -0.34722
 BRILLOUIN|   835           0.00004       -0.48611        0.15278       -0.31944
 BRILLOUIN|   836           0.00004       -0.48611        0.15278       -0.29167
 BRILLOUIN|   837           0.00004       -0.48611        0.15278       -0.26389
 BRILLOUIN|   838           0.00004       -0.48611        0.15278       -0.23611
 BRILLOUIN|   839           0.00004       -0.48611        0.15278       -0.20833
 BRILLOUIN|   840           0.00004       -0.48611        0.15278       -0.18056
 BRILLOUIN|   841           0.00004       -0.48611        0.15278       -0.15278
 BRILLOUIN|   842           0.00004       -0.48611        0.15278       -0.12500
 BRILLOUIN|   843           0.00004       -0.48611        0.15278       -0.09722
 BRILLOUIN|   844           0.00004       -0.48611        0.15278       -0.06944
 BRILLOUIN|   845           0.00004       -0.48611        0.15278       -0.04167
 BRILLOUIN|   846           0.00004       -0.48611        0.15278       -0.01389
 BRILLOUIN|   847           0.00004       -0.48611        0.15278        0.01389
 BRILLOUIN|   848           0.00004       -0.48611        0.15278        0.04167
 BRILLOUIN|   849           0.00004       -0.48611        0.15278        0.06944
 BRILLOUIN|   850           0.00004       -0.48611        0.15278        0.09722
 BRILLOUIN|   851           0.00004       -0.48611        0.15278        0.12500
 BRILLOUIN|   852           0.00004       -0.48611        0.15278        0.15278
 BRILLOUIN|   853           0.00004       -0.48611        0.15278        0.18056
 BRILLOUIN|   854           0.00004       -0.48611        0.15278        0.20833
 BRILLOUIN|   855           0.00004       -0.48611        0.15278        0.23611
 BRILLOUIN|   856           0.00004       -0.48611        0.15278        0.26389
 BRILLOUIN|   857           0.00004       -0.48611        0.15278        0.29167
 BRILLOUIN|   858           0.00004       -0.48611        0.15278        0.31944
 BRILLOUIN|   859           0.00004       -0.48611        0.15278        0.34722
 BRILLOUIN|   860           0.00004       -0.48611        0.15278        0.37500
 BRILLOUIN|   861           0.00004       -0.48611        0.15278        0.40278
 BRILLOUIN|   862           0.00004       -0.48611        0.15278        0.43056
 BRILLOUIN|   863           0.00004       -0.48611        0.15278        0.45833
[...]
 *******************************************************************************
                          1         2.26159                    -119.168988693848
                          2         9.63323                    -114.335129198114
                          3         2.17577                    -122.714773064274
                          4        0.815526                    -122.900903097968
                          5        0.126125                    -122.929327601667
                          6        0.943176E-01                -122.932884934474
                          7        0.445708E-01                -122.935504986750
                          8        0.317177E-01                -122.935569152260
                          9        0.370426E-01                -122.935528481281
                         10        0.303089E-01                -122.935645358654
                         11        0.243140E-01                -122.935719374409
                         12        0.335101E-01                -122.935643771232
                         13        0.163983E-01                -122.935792584829
                         14        0.301939E-01                -122.935834414194
                         15        0.289651E-01                -122.935835990672
                         16        0.269436E-01                -122.935842398437
                         17        0.254385E-01                -122.935847209861
                         18        0.255855E-01                -122.935847340286
                         19        0.689341E-02                -122.935883063653
                         20        0.755987E-02                -122.935882479737
                         21        0.742387E-02                -122.935882743374
                         22        0.730809E-02                -122.935883040506
                         23        0.720000E-02                -122.935883336611
                         24        0.434205E-02                -122.935889289189
                         25        0.620833E-02                -122.935892700569
                         26        0.626966E-02                -122.935892670937
                         27        0.626488E-02                -122.935892671215
                         28        0.625275E-02                -122.935892678365
                         29        0.624411E-02                -122.935892684076
                         30        0.168841E-02                -122.935894675427
                         31        0.161972E-02                -122.935894834234
                         32        0.162208E-02                -122.935894833182
                         33        0.162280E-02                -122.935894832728
                         34        0.162298E-02                -122.935894832578
                         35        0.162506E-02                -122.935894831333
                         36        0.211039E-02                -122.935895169335
                         37        0.136949E-02                -122.935895306030
                         38        0.137040E-02                -122.935895306021
                         39        0.137232E-02                -122.935895306012
                         40        0.137223E-02                -122.935895306022
                         41        0.137050E-02                -122.935895306285
                         42        0.120568E-02                -122.935895329536
                         43        0.356835E-03                -122.935895409837
                         44        0.356509E-03                -122.935895409889
                         45        0.356638E-03                -122.935895409877
                         46        0.356872E-03                -122.935895409850
                         47        0.358044E-03                -122.935895409704
                         48        0.464074E-03                -122.935895426124
                         49        0.301425E-03                -122.935895432726
                         50        0.301548E-03                -122.935895432728
 No convergence within maximum number of iterations 

 Energy components [Hartree]           Total Energy ::         -122.935895432728
                                        Band Energy ::          -21.733370084297
                                     Kinetic Energy ::           66.698956050548
                                   Potential Energy ::         -189.634851483276
                                      Virial (-V/T) ::            2.843145720895
                                        Core Energy ::         -215.467355550114
                                          XC Energy ::          -12.668984102641
                                     Coulomb Energy ::          105.200444220027
                       Total Pseudopotential Energy ::         -282.226406664812
                       Local Pseudopotential Energy ::         -259.344373904022
                    Nonlocal Pseudopotential Energy ::          -22.882032760790
                                        Confinement ::            0.600950641508

 Orbital energies  State     Spin  L     Occupation   Energy[a.u.]    Energy[eV]

                       1    alpha  0          1.000      -3.533588    -96.153808
                       2    alpha  0          1.000      -0.169958     -4.624797
                       1     beta  0          1.000      -3.432272    -93.396861
                       2     beta  0          1.000      -0.152016     -4.136565

                       1    alpha  1          3.000      -2.200823    -59.887442
                       1     beta  1          3.000      -2.102693    -57.217198

                       1    alpha  2          4.150      -0.281156     -7.650650
                       1     beta  2          1.850      -0.199021     -5.415636


 Total Electron Density at R=0:                                         0.007702

 Spin 1
 Re-scaling the density matrix to get the right number of electrons for spin 1
                  # Electrons              Trace(P)               Scaling factor
                           18                18.300                        0.984

 Spin 2
 Re-scaling the density matrix to get the right number of electrons for spin 2
                  # Electrons              Trace(P)               Scaling factor
                           14                13.700                        1.022


 SCF WAVEFUNCTION OPTIMIZATION

  Step     Update method      Time    Convergence         Total energy    Change
  ------------------------------------------------------------------------------
     1 NoMix/Diag. 0.40E+00 1647.2     0.97015288      -248.0966067375 -2.48E+02
     2 Broy./Diag. 0.40E+00 1524.8     0.01600279      -246.8563528995  1.24E+00
     3 Broy./Diag. 0.40E+00 1661.9     0.02547853      -247.2731813450 -4.17E-01
     4 Broy./Diag. 0.40E+00 1475.7     0.00491911      -247.1033128452  1.70E-01
     5 Broy./Diag. 0.40E+00 1535.8     0.00213215      -247.1591773633 -5.59E-02
     6 Broy./Diag. 0.40E+00 1593.4     0.00047306      -247.1211183380  3.81E-02
     7 Broy./Diag. 0.40E+00 1608.4     0.00066639      -247.1307440744 -9.63E-03
     8 Broy./Diag. 0.40E+00 1567.8     0.00043932      -247.1331700127 -2.43E-03
     9 Broy./Diag. 0.40E+00 1503.8     0.00019091      -247.1303811482  2.79E-03
    10 Broy./Diag. 0.40E+00 1683.3     0.00003137      -247.1286226792  1.76E-03
    11 Broy./Diag. 0.40E+00 1598.5     0.00002762      -247.1298952475 -1.27E-03
    12 Broy./Diag. 0.40E+00 1647.8     0.00002342      -247.1313798222 -1.48E-03
    13 Broy./Diag. 0.40E+00 1647.1     0.00003097      -247.1325177942 -1.14E-03
    14 Broy./Diag. 0.40E+00 1662.0     0.00002086      -247.1335990231 -1.08E-03
    15 Broy./Diag. 0.40E+00 1634.7     0.00001279      -247.1334128651  1.86E-04
    16 Broy./Diag. 0.40E+00 1639.2     0.00000223      -247.1335770592 -1.64E-04
    17 Broy./Diag. 0.40E+00 1638.7     0.00000071      -247.1335580445  1.90E-05
    18 Broy./Diag. 0.40E+00 1632.6     0.00000088      -247.1335681847 -1.01E-05
    19 Broy./Diag. 0.40E+00 1634.6     0.00000152      -247.1335665273  1.66E-06
    20 Broy./Diag. 0.40E+00 1630.6     0.00000069      -247.1334513420  1.15E-04
    21 Broy./Diag. 0.40E+00 1631.4     0.00000025      -247.1334403897  1.10E-05
    22 Broy./Diag. 0.40E+00 1633.3     0.00000070      -247.1334393403  1.05E-06
    23 Broy./Diag. 0.40E+00 1632.0     0.00000036      -247.1334898163 -5.05E-05
    24 Broy./Diag. 0.40E+00 1624.7     0.00000019      -247.1334956218 -5.81E-06
    25 Broy./Diag. 0.40E+00 1622.5     0.00000003      -247.1334913051  4.32E-06
    26 Broy./Diag. 0.40E+00 1559.5     7.8108E-09      -247.1334919575 -6.52E-07

  *** SCF run converged in    26 steps ***


  Electronic density on regular grids:        -32.0000000000        0.0000000000
  Core density on regular grids:               32.0000000000        0.0000000000
  Total charge density on r-space grids:        0.0000000000
  Total charge density g-space grids:           0.0000000000

  Overlap energy of the core charge distribution:               0.00000000000000
  Self energy of the core charge distribution:               -401.20148163396004
  Core Hamiltonian energy:                                    112.13774849129081
  Hartree energy:                                              68.50356446988997
  Exchange-correlation energy:                                -26.57317701098921
  Electronic entropic energy:                                  -0.00014627371257
  Fermi energy:                                                 0.54500606105950

  Total energy:                                              -247.13349195748069

  Integrated absolute spin density  :                               4.4396803133

 *** WARNING in qs_scf_post_gpw.F:2163 :: Spin contamination estimate not ***
 *** implemented for k-points.                                            ***


 !-----------------------------------------------------------------------------!
                     Mulliken Population Analysis

 #  Atom  Element  Kind  Atomic population (alpha,beta) Net charge  Spin moment
       1     Fe       1         9.069583     6.930417     0.000000     2.139166
       2     Fe       1         9.069582     6.930418    -0.000000     2.139164
 # Total charge and spin       18.139165    13.860835     0.000000     4.278330

 !-----------------------------------------------------------------------------!

 !-----------------------------------------------------------------------------!
                           Hirshfeld Charges

  #Atom  Element  Kind  Ref Charge     Population       Spin moment  Net charge
      1       Fe     1      16.000    9.070   6.930            2.139      0.000
      2       Fe     1      16.000    9.070   6.930            2.139     -0.000

  Total Charge                                                            0.000
 !-----------------------------------------------------------------------------!

 ENERGY| Total FORCE_EVAL ( QS ) energy (a.u.):             -247.133491957480686


 -------------------------------------------------------------------------------
 -                                                                             -
 -                                DBCSR STATISTICS                             -
 -                                                                             -
 -------------------------------------------------------------------------------
 COUNTER                                    TOTAL       BLAS       SMM       ACC
 flops inhomo. stacks                           0       0.0%      0.0%      0.0%
 flops total                         0.000000E+00       0.0%      0.0%      0.0%
 flops max/rank                      0.000000E+00       0.0%      0.0%      0.0%
 matmuls inhomo. stacks                         0       0.0%      0.0%      0.0%
 matmuls total                                  0       0.0%      0.0%      0.0%
 number of processed stacks                     0       0.0%      0.0%      0.0%
 average stack size                                     0.0       0.0       0.0
 marketing flops                     0.000000E+00
 -------------------------------------------------------------------------------

 MEMORY| Estimated peak process memory [MiB]                                 814

 -------------------------------------------------------------------------------
 ----                             MULTIGRID INFO                            ----
 -------------------------------------------------------------------------------
 count for grid        1:        1568894          cutoff [a.u.]          500.00
 count for grid        2:         674790          cutoff [a.u.]          166.67
 count for grid        3:         382006          cutoff [a.u.]           55.56
 count for grid        4:          94382          cutoff [a.u.]           18.52
 total gridlevel count  :        2720072

 -------------------------------------------------------------------------------
 -                                                                             -
 -                         MESSAGE PASSING PERFORMANCE                         -
 -                                                                             -
 -------------------------------------------------------------------------------

 ROUTINE             CALLS      AVE VOLUME [Bytes]
 MP_Group          4855511
 MP_Bcast         43670289                    198.
 MP_Allreduce       129436                   1885.
 MP_Sync               641
 MP_Alltoall      99511492                 252843.
 MP_ISendRecv       122836                   2584.
 MP_Wait          29262088
 MP_comm_split           1
 MP_ISend         28589426                    328.
 MP_IRecv         49742282                    188.
 MP_Recv             55760                   1248.
 -------------------------------------------------------------------------------


 -------------------------------------------------------------------------------
 -                                                                             -
 -                           R E F E R E N C E S                               -
 -                                                                             -
 -------------------------------------------------------------------------------
 
 CP2K version 5.0 (Development Version), the CP2K developers group (2016).
 CP2K is freely available from https://www.cp2k.org/ .

 Schuett, Ole; Messmer, Peter; Hutter, Juerg; VandeVondele, Joost. 
 Electronic Structure Calculations on Graphics Processing Units, John Wiley & Sons, Ltd, 173-190 (2016). 
 GPU-Accelerated Sparse Matrix-Matrix Multiplication for Linear Scaling Density Functional Theory.
 http://dx.doi.org/10.1002/9781118670712.ch8


 Borstnik, U; VandeVondele, J; Weber, V; Hutter, J. 
 PARALLEL COMPUTING, 40 (5-6), 47-58 (2014). 
 Sparse matrix multiplication: The distributed block-compressed sparse
 row library.
 http://dx.doi.org/10.1016/j.parco.2014.03.012


 Hutter, J; Iannuzzi, M; Schiffmann, F; VandeVondele, J. 
 WILEY INTERDISCIPLINARY REVIEWS-COMPUTATIONAL MOLECULAR SCIENCE, 4 (1), 15-25 (2014). 
 CP2K: atomistic simulations of condensed matter systems.
 http://dx.doi.org/10.1002/wcms.1159


 VandeVondele, J; Hutter, J. 
 JOURNAL OF CHEMICAL PHYSICS, 127 (11), 114105 (2007). 
 Gaussian basis sets for accurate calculations on molecular systems in
 gas and condensed phases.
 http://dx.doi.org/10.1063/1.2770708


 Krack, M. 
 THEORETICAL CHEMISTRY ACCOUNTS, 114 (1-3), 145-152 (2005). 
 Pseudopotentials for H to Kr optimized for gradient-corrected
 exchange-correlation functionals.
 http://dx.doi.org/10.1007/s00214-005-0655-y


 VandeVondele, J; Krack, M; Mohamed, F; Parrinello, M; Chassaing, T;
 Hutter, J. COMPUTER PHYSICS COMMUNICATIONS, 167 (2), 103-128 (2005). 
 QUICKSTEP: Fast and accurate density functional calculations using a
 mixed Gaussian and plane waves approach.
 http://dx.doi.org/10.1016/j.cpc.2004.12.014


 Frigo, M; Johnson, SG. 
 PROCEEDINGS OF THE IEEE, 93 (2), 216-231 (2005). 
 The design and implementation of FFTW3.
 http://dx.doi.org/10.1109/JPROC.2004.840301


 Hartwigsen, C; Goedecker, S; Hutter, J. 
 PHYSICAL REVIEW B, 58 (7), 3641-3662 (1998). 
 Relativistic separable dual-space Gaussian pseudopotentials from H to Rn.
 http://dx.doi.org/10.1103/PhysRevB.58.3641


 Lippert, G; Hutter, J; Parrinello, M. 
 MOLECULAR PHYSICS, 92 (3), 477-487 (1997). 
 A hybrid Gaussian and plane wave density functional scheme.
 http://dx.doi.org/10.1080/002689797170220


 Perdew, JP; Burke, K; Ernzerhof, M. 
 PHYSICAL REVIEW LETTERS, 77 (18), 3865-3868 (1996). 
 Generalized gradient approximation made simple.
 http://dx.doi.org/10.1103/PhysRevLett.77.3865


 Goedecker, S; Teter, M; Hutter, J. 
 PHYSICAL REVIEW B, 54 (3), 1703-1710 (1996). 
 Separable dual-space Gaussian pseudopotentials.
 http://dx.doi.org/10.1103/PhysRevB.54.1703


 -------------------------------------------------------------------------------
 -                                                                             -
 -                                T I M I N G                                  -
 -                                                                             -
 -------------------------------------------------------------------------------
 SUBROUTINE                       CALLS  ASD         SELF TIME        TOTAL TIME
                                MAXIMUM       AVERAGE  MAXIMUM  AVERAGE  MAXIMUM
 CP2K                                 1  1.0     0.80     0.86 41893.16 41896.06
 qs_energies                          1  2.0     0.00     0.00 41890.54 41893.44
 scf_env_do_scf                       1  3.0     0.00     0.00 41884.57 41887.47
 scf_env_do_scf_inner_loop           26  4.0     0.03     0.43 41884.57 41887.47
 qs_scf_new_mos_kp                   26  5.0     0.00     0.00 41701.15 41704.39
 do_general_diag_kp                  26  6.0    22.61    25.68 41701.15 41704.39
 dbcsr_desymmetrize_deep        9707730  7.5   197.34   243.75 19383.15 19505.69
 mp_alltoall_i22                *******  8.9 18906.16 19305.84 18906.16 19305.84
 dbcsr_complete_redistribute    7281617  8.3   294.13   458.66 18109.67 18157.95
 copy_dbcsr_to_fm               4855505  7.0    58.69    62.77 13447.72 13479.10
 rskp_transform                 2426112  7.0    60.64 11047.52    60.64 11047.52
 kpoint_density_transform            26  7.0     6.83     8.42 10751.71 10752.64
 copy_fm_to_dbcsr               2426112  8.0     7.64     8.53  9095.76  9126.46
 mp_alltoall_d11v               *******  9.4  7902.86  8057.85  7902.86  8057.85
 mp_alltoall_i11v               *******  9.1  7759.70  7777.28  7759.70  7777.28
 transform_dmat                 1213056  8.0    30.35  5562.16    30.35  5562.16
 cp_fm_start_copy_general       7278336  7.3    68.27   127.35  3655.78  3688.96
 hybrid_alltoall_any            9707730  8.5    55.27    63.23  2928.03  3053.52
 mp_allgather_i                 *******  8.3  2943.91  3050.75  2943.91  3050.75
 mp_cart_sub                    9711019  9.0  1080.86  1088.70  1080.86  1088.70
 mp_cart_create                 4855511  9.0   824.43   899.80   824.43   899.80
 -------------------------------------------------------------------------------

 The number of warnings for this run is : 3
 
 -------------------------------------------------------------------------------
  **** **** ******  **  PROGRAM ENDED AT                 2017-10-04 04:41:29.653
 ***** ** ***  *** **   PROGRAM RAN ON                                  nid00111
 **    ****   ******    PROGRAM RAN BY                                    timuel
 ***** **    ** ** **   PROGRAM PROCESS ID                                 52698
  **** **  *******  **  PROGRAM STOPPED IN /scratch/snx1600/timuel/fdaemon-data/
                                           f6c7d527-1919-41a1-a13b-8f03ea99ef98
