 DBCSR| Multiplication driver                                               XSMM
 DBCSR| Multrec recursion limit                                              512
 DBCSR| Multiplication stack size                                           1000
 DBCSR| Maximum elements for images                                    UNLIMITED
 DBCSR| Multiplicative factor virtual images                                   1
 DBCSR| Multiplication size stacks                                             3
 DBCSR| Number of 3D layers                                               SINGLE
 DBCSR| Use MPI memory allocation                                              T
 DBCSR| Use RMA algorithm                                                      F
 DBCSR| Use Communication thread                                               T
 DBCSR| Communication thread load                                             87


  **** **** ******  **  PROGRAM STARTED AT               2017-04-16 23:27:22.415
 ***** ** ***  *** **   PROGRAM STARTED ON                              nid00968
 **    ****   ******    PROGRAM STARTED BY                                timuel
 ***** **    ** ** **   PROGRAM PROCESS ID                                 11891
  **** **  *******  **  PROGRAM STARTED IN /scratch/snx3000/timuel/fdaemon-data/
                                           43ef1d77-2f17-422f-a58f-656048821ba4

 CP2K| version string:                    CP2K version 5.0 (Development Version)
 CP2K| source code revision number:                                    svn:17848
 CP2K| cp2kflags: omp libint fftw3 libxc elpa=201605 elpa_qr parallel mpi3 scala
 CP2K|            pack libxsmm has_no_shared_glibc libderiv_max_am1=6 libint_max_am=7 max_contr=4
 CP2K| is freely available from                            https://www.cp2k.org/
 CP2K| Program compiled at                         Tue Apr  4 09:59:02 CEST 2017
 CP2K| Program compiled on                                              daint102
 CP2K| Program compiled for                    CRAY_XC40-gfortran-6.0.3_daint-mc
 CP2K| Data directory path              /users/timuel/work/cp2k4fatman/cp2k/data
 CP2K| Input file name                                                  calc.inp

 GLOBAL| Force Environment number                                              1
 GLOBAL| Basis set file name                                        ./BASIS_SETS
 GLOBAL| Potential file name                                        ./POTENTIALS
 GLOBAL| MM Potential file name                                     MM_POTENTIAL
 GLOBAL| Coordinate file name                                       ./struct.xyz
 GLOBAL| Method name                                                        CP2K
 GLOBAL| Project name                                                fatman.calc
 GLOBAL| Preferred FFT library                                             FFTW3
 GLOBAL| Preferred diagonalization lib.                                       SL
 GLOBAL| Run type                                                         ENERGY
 GLOBAL| All-to-all communication in single precision                          F
 GLOBAL| FFTs using library dependent lengths                                  F
 GLOBAL| Global print level                                               MEDIUM
 GLOBAL| Total number of message passing processes                           288
 GLOBAL| Number of threads for this process                                    1
 GLOBAL| This output is from process                                           0
 GLOBAL| CPU model name :  Intel(R) Xeon(R) CPU E5-2695 v4 @ 2.10GHz

 MEMORY| system memory details [Kb]
 MEMORY|                        rank 0           min           max       average
 MEMORY| MemTotal             65994372      65994372      65994372      65994372
 MEMORY| MemFree              60464108      60464108      60932228      60797203
 MEMORY| Buffers                     0             0            16             2
 MEMORY| Cached                 950988        683764        950988        718352
 MEMORY| Slab                   410760        407568        410760        409124
 MEMORY| SReclaimable            17208         15184         17208         16330
 MEMORY| MemLikelyFree        61432304      61432304      61631176      61531887


 *** Fundamental physical constants (SI units) ***

 *** Literature: B. J. Mohr and B. N. Taylor,
 ***             CODATA recommended values of the fundamental physical
 ***             constants: 2006, Web Version 5.1
 ***             http://physics.nist.gov/constants

 Speed of light in vacuum [m/s]                             2.99792458000000E+08
 Magnetic constant or permeability of vacuum [N/A**2]       1.25663706143592E-06
 Electric constant or permittivity of vacuum [F/m]          8.85418781762039E-12
 Planck constant (h) [J*s]                                  6.62606896000000E-34
 Planck constant (h-bar) [J*s]                              1.05457162825177E-34
 Elementary charge [C]                                      1.60217648700000E-19
 Electron mass [kg]                                         9.10938215000000E-31
 Electron g factor [ ]                                     -2.00231930436220E+00
 Proton mass [kg]                                           1.67262163700000E-27
 Fine-structure constant                                    7.29735253760000E-03
 Rydberg constant [1/m]                                     1.09737315685270E+07
 Avogadro constant [1/mol]                                  6.02214179000000E+23
 Boltzmann constant [J/K]                                   1.38065040000000E-23
 Atomic mass unit [kg]                                      1.66053878200000E-27
 Bohr radius [m]                                            5.29177208590000E-11

 *** Conversion factors ***

 [u] -> [a.u.]                                              1.82288848426455E+03
 [Angstrom] -> [Bohr] = [a.u.]                              1.88972613288564E+00
 [a.u.] = [Bohr] -> [Angstrom]                              5.29177208590000E-01
 [a.u.] -> [s]                                              2.41888432650478E-17
 [a.u.] -> [fs]                                             2.41888432650478E-02
 [a.u.] -> [J]                                              4.35974393937059E-18
 [a.u.] -> [N]                                              8.23872205491840E-08
 [a.u.] -> [K]                                              3.15774647902944E+05
 [a.u.] -> [kJ/mol]                                         2.62549961709828E+03
 [a.u.] -> [kcal/mol]                                       6.27509468713739E+02
 [a.u.] -> [Pa]                                             2.94210107994716E+13
 [a.u.] -> [bar]                                            2.94210107994716E+08
 [a.u.] -> [atm]                                            2.90362800883016E+08
 [a.u.] -> [eV]                                             2.72113838565563E+01
 [a.u.] -> [Hz]                                             6.57968392072181E+15
 [a.u.] -> [1/cm] (wave numbers)                            2.19474631370540E+05
 [a.u./Bohr**2] -> [1/cm]                                   5.14048714338585E+03
 

 CELL_TOP| Volume [angstrom^3]:                                          507.137
 CELL_TOP| Vector a [angstrom     8.370     0.000     0.000    |a| =       8.370
 CELL_TOP| Vector b [angstrom     0.000     8.370     0.000    |b| =       8.370
 CELL_TOP| Vector c [angstrom     0.000     0.000     7.239    |c| =       7.239
 CELL_TOP| Angle (b,c), alpha [degree]:                                   90.000
 CELL_TOP| Angle (a,c), beta  [degree]:                                   90.000
 CELL_TOP| Angle (a,b), gamma [degree]:                                   90.000
 CELL_TOP| Numerically orthorhombic:                                         YES

 CELL_UC| Volume [angstrom^3]:                                            63.392
 CELL_UC| Vector a [angstrom]     4.185     0.000     0.000    |a| =       4.185
 CELL_UC| Vector b [angstrom]     0.000     4.185     0.000    |b| =       4.185
 CELL_UC| Vector c [angstrom]     0.000     0.000     3.619    |c| =       3.619
 CELL_UC| Angle (b,c), alpha [degree]:                                    90.000
 CELL_UC| Angle (a,c), beta  [degree]:                                    90.000
 CELL_UC| Angle (a,b), gamma [degree]:                                    90.000
 CELL_UC| Numerically orthorhombic:                                          YES

 GENERATE|  Preliminary Number of Bonds generated:                             0
 GENERATE|  Achieved consistency in connectivity generation.

 CELL| Volume [angstrom^3]:                                              507.137
 CELL| Vector a [angstrom]:       8.370     0.000     0.000    |a| =       8.370
 CELL| Vector b [angstrom]:       0.000     8.370     0.000    |b| =       8.370
 CELL| Vector c [angstrom]:       0.000     0.000     7.239    |c| =       7.239
 CELL| Angle (b,c), alpha [degree]:                                       90.000
 CELL| Angle (a,c), beta  [degree]:                                       90.000
 CELL| Angle (a,b), gamma [degree]:                                       90.000
 CELL| Numerically orthorhombic:                                             YES

 CELL_REF| Volume [angstrom^3]:                                           71.683
 CELL_REF| Vector a [angstrom     4.360     0.000     0.000    |a| =       4.360
 CELL_REF| Vector b [angstrom     0.000     4.360     0.000    |b| =       4.360
 CELL_REF| Vector c [angstrom     0.000     0.000     3.771    |c| =       3.771
 CELL_REF| Angle (b,c), alpha [degree]:                                   90.000
 CELL_REF| Angle (a,c), beta  [degree]:                                   90.000
 CELL_REF| Angle (a,b), gamma [degree]:                                   90.000
 CELL_REF| Numerically orthorhombic:                                         YES

 *******************************************************************************
                                    Kpoints
 *******************************************************************************
 BRILLOUIN| K-point scheme                                        Monkhorst-Pack
 BRILLOUIN| K-Point grid                                            12   12   14
 BRILLOUIN| Accuracy in Symmetry determination                      0.100000E-05
 BRILLOUIN| K-Point point group symmetrization                               OFF
 BRILLOUIN| Wavefunction type                                            COMPLEX
 BRILLOUIN| Use full k-point grid     
 BRILLOUIN| List of Kpoints [2 Pi/Bohr]                                     2016
 BRILLOUIN| Number           Weight            X              Y              Z
 BRILLOUIN|     1           0.00050       -0.45833       -0.45833       -0.46429
 BRILLOUIN|     2           0.00050       -0.45833       -0.45833       -0.39286
 BRILLOUIN|     3           0.00050       -0.45833       -0.45833       -0.32143
 BRILLOUIN|     4           0.00050       -0.45833       -0.45833       -0.25000
 BRILLOUIN|     5           0.00050       -0.45833       -0.45833       -0.17857
 BRILLOUIN|     6           0.00050       -0.45833       -0.45833       -0.10714
 BRILLOUIN|     7           0.00050       -0.45833       -0.45833       -0.03571
 BRILLOUIN|     8           0.00050       -0.45833       -0.45833        0.03571
 BRILLOUIN|     9           0.00050       -0.45833       -0.45833        0.10714
 BRILLOUIN|    10           0.00050       -0.45833       -0.45833        0.17857
 BRILLOUIN|    11           0.00050       -0.45833       -0.45833        0.25000
 BRILLOUIN|    12           0.00050       -0.45833       -0.45833        0.32143
 BRILLOUIN|    13           0.00050       -0.45833       -0.45833        0.39286
 BRILLOUIN|    14           0.00050       -0.45833       -0.45833        0.46429
 BRILLOUIN|    15           0.00050       -0.45833       -0.37500       -0.46429
 BRILLOUIN|    16           0.00050       -0.45833       -0.37500       -0.39286
 BRILLOUIN|    17           0.00050       -0.45833       -0.37500       -0.32143
 BRILLOUIN|    18           0.00050       -0.45833       -0.37500       -0.25000
 BRILLOUIN|    19           0.00050       -0.45833       -0.37500       -0.17857
 BRILLOUIN|    20           0.00050       -0.45833       -0.37500       -0.10714
 BRILLOUIN|    21           0.00050       -0.45833       -0.37500       -0.03571
 BRILLOUIN|    22           0.00050       -0.45833       -0.37500        0.03571
 BRILLOUIN|    23           0.00050       -0.45833       -0.37500        0.10714
 BRILLOUIN|    24           0.00050       -0.45833       -0.37500        0.17857
 BRILLOUIN|    25           0.00050       -0.45833       -0.37500        0.25000
 BRILLOUIN|    26           0.00050       -0.45833       -0.37500        0.32143
 BRILLOUIN|    27           0.00050       -0.45833       -0.37500        0.39286
 BRILLOUIN|    28           0.00050       -0.45833       -0.37500        0.46429
 BRILLOUIN|    29           0.00050       -0.45833       -0.29167       -0.46429
 BRILLOUIN|    30           0.00050       -0.45833       -0.29167       -0.39286
 BRILLOUIN|    31           0.00050       -0.45833       -0.29167       -0.32143
 BRILLOUIN|    32           0.00050       -0.45833       -0.29167       -0.25000
 BRILLOUIN|    33           0.00050       -0.45833       -0.29167       -0.17857
 BRILLOUIN|    34           0.00050       -0.45833       -0.29167       -0.10714
 BRILLOUIN|    35           0.00050       -0.45833       -0.29167       -0.03571
 BRILLOUIN|    36           0.00050       -0.45833       -0.29167        0.03571
 BRILLOUIN|    37           0.00050       -0.45833       -0.29167        0.10714
 BRILLOUIN|    38           0.00050       -0.45833       -0.29167        0.17857
 BRILLOUIN|    39           0.00050       -0.45833       -0.29167        0.25000
 BRILLOUIN|    40           0.00050       -0.45833       -0.29167        0.32143
 BRILLOUIN|    41           0.00050       -0.45833       -0.29167        0.39286
 BRILLOUIN|    42           0.00050       -0.45833       -0.29167        0.46429
 BRILLOUIN|    43           0.00050       -0.45833       -0.20833       -0.46429
 BRILLOUIN|    44           0.00050       -0.45833       -0.20833       -0.39286
 BRILLOUIN|    45           0.00050       -0.45833       -0.20833       -0.32143
 BRILLOUIN|    46           0.00050       -0.45833       -0.20833       -0.25000
 BRILLOUIN|    47           0.00050       -0.45833       -0.20833       -0.17857
 BRILLOUIN|    48           0.00050       -0.45833       -0.20833       -0.10714
 BRILLOUIN|    49           0.00050       -0.45833       -0.20833       -0.03571
 BRILLOUIN|    50           0.00050       -0.45833       -0.20833        0.03571
 BRILLOUIN|    51           0.00050       -0.45833       -0.20833        0.10714
 BRILLOUIN|    52           0.00050       -0.45833       -0.20833        0.17857
 BRILLOUIN|    53           0.00050       -0.45833       -0.20833        0.25000
 BRILLOUIN|    54           0.00050       -0.45833       -0.20833        0.32143
 BRILLOUIN|    55           0.00050       -0.45833       -0.20833        0.39286
 BRILLOUIN|    56           0.00050       -0.45833       -0.20833        0.46429
 BRILLOUIN|    57           0.00050       -0.45833       -0.12500       -0.46429
 BRILLOUIN|    58           0.00050       -0.45833       -0.12500       -0.39286
 BRILLOUIN|    59           0.00050       -0.45833       -0.12500       -0.32143
 BRILLOUIN|    60           0.00050       -0.45833       -0.12500       -0.25000
 BRILLOUIN|    61           0.00050       -0.45833       -0.12500       -0.17857
 BRILLOUIN|    62           0.00050       -0.45833       -0.12500       -0.10714
 BRILLOUIN|    63           0.00050       -0.45833       -0.12500       -0.03571
 BRILLOUIN|    64           0.00050       -0.45833       -0.12500        0.03571
 BRILLOUIN|    65           0.00050       -0.45833       -0.12500        0.10714
 BRILLOUIN|    66           0.00050       -0.45833       -0.12500        0.17857
 BRILLOUIN|    67           0.00050       -0.45833       -0.12500        0.25000
 BRILLOUIN|    68           0.00050       -0.45833       -0.12500        0.32143
 BRILLOUIN|    69           0.00050       -0.45833       -0.12500        0.39286
 BRILLOUIN|    70           0.00050       -0.45833       -0.12500        0.46429
 BRILLOUIN|    71           0.00050       -0.45833       -0.04167       -0.46429
 BRILLOUIN|    72           0.00050       -0.45833       -0.04167       -0.39286
 BRILLOUIN|    73           0.00050       -0.45833       -0.04167       -0.32143
 BRILLOUIN|    74           0.00050       -0.45833       -0.04167       -0.25000
 BRILLOUIN|    75           0.00050       -0.45833       -0.04167       -0.17857
 BRILLOUIN|    76           0.00050       -0.45833       -0.04167       -0.10714
 BRILLOUIN|    77           0.00050       -0.45833       -0.04167       -0.03571
 BRILLOUIN|    78           0.00050       -0.45833       -0.04167        0.03571
 BRILLOUIN|    79           0.00050       -0.45833       -0.04167        0.10714
 BRILLOUIN|    80           0.00050       -0.45833       -0.04167        0.17857
 BRILLOUIN|    81           0.00050       -0.45833       -0.04167        0.25000
 BRILLOUIN|    82           0.00050       -0.45833       -0.04167        0.32143
 BRILLOUIN|    83           0.00050       -0.45833       -0.04167        0.39286
 BRILLOUIN|    84           0.00050       -0.45833       -0.04167        0.46429
 BRILLOUIN|    85           0.00050       -0.45833        0.04167       -0.46429
 BRILLOUIN|    86           0.00050       -0.45833        0.04167       -0.39286
 BRILLOUIN|    87           0.00050       -0.45833        0.04167       -0.32143
 BRILLOUIN|    88           0.00050       -0.45833        0.04167       -0.25000
 BRILLOUIN|    89           0.00050       -0.45833        0.04167       -0.17857
 BRILLOUIN|    90           0.00050       -0.45833        0.04167       -0.10714
 BRILLOUIN|    91           0.00050       -0.45833        0.04167       -0.03571
 BRILLOUIN|    92           0.00050       -0.45833        0.04167        0.03571
 BRILLOUIN|    93           0.00050       -0.45833        0.04167        0.10714
 BRILLOUIN|    94           0.00050       -0.45833        0.04167        0.17857
 BRILLOUIN|    95           0.00050       -0.45833        0.04167        0.25000
 BRILLOUIN|    96           0.00050       -0.45833        0.04167        0.32143
 BRILLOUIN|    97           0.00050       -0.45833        0.04167        0.39286
 BRILLOUIN|    98           0.00050       -0.45833        0.04167        0.46429
 BRILLOUIN|    99           0.00050       -0.45833        0.12500       -0.46429
 BRILLOUIN|   100           0.00050       -0.45833        0.12500       -0.39286
 BRILLOUIN|   101           0.00050       -0.45833        0.12500       -0.32143
 BRILLOUIN|   102           0.00050       -0.45833        0.12500       -0.25000
 BRILLOUIN|   103           0.00050       -0.45833        0.12500       -0.17857
 BRILLOUIN|   104           0.00050       -0.45833        0.12500       -0.10714
 BRILLOUIN|   105           0.00050       -0.45833        0.12500       -0.03571
 BRILLOUIN|   106           0.00050       -0.45833        0.12500        0.03571
 BRILLOUIN|   107           0.00050       -0.45833        0.12500        0.10714
 BRILLOUIN|   108           0.00050       -0.45833        0.12500        0.17857
 BRILLOUIN|   109           0.00050       -0.45833        0.12500        0.25000
 BRILLOUIN|   110           0.00050       -0.45833        0.12500        0.32143
 BRILLOUIN|   111           0.00050       -0.45833        0.12500        0.39286
 BRILLOUIN|   112           0.00050       -0.45833        0.12500        0.46429
 BRILLOUIN|   113           0.00050       -0.45833        0.20833       -0.46429
 BRILLOUIN|   114           0.00050       -0.45833        0.20833       -0.39286
 BRILLOUIN|   115           0.00050       -0.45833        0.20833       -0.32143
 BRILLOUIN|   116           0.00050       -0.45833        0.20833       -0.25000
 BRILLOUIN|   117           0.00050       -0.45833        0.20833       -0.17857
 BRILLOUIN|   118           0.00050       -0.45833        0.20833       -0.10714
 BRILLOUIN|   119           0.00050       -0.45833        0.20833       -0.03571
 BRILLOUIN|   120           0.00050       -0.45833        0.20833        0.03571
 BRILLOUIN|   121           0.00050       -0.45833        0.20833        0.10714
 BRILLOUIN|   122           0.00050       -0.45833        0.20833        0.17857
 BRILLOUIN|   123           0.00050       -0.45833        0.20833        0.25000
 BRILLOUIN|   124           0.00050       -0.45833        0.20833        0.32143
 BRILLOUIN|   125           0.00050       -0.45833        0.20833        0.39286
 BRILLOUIN|   126           0.00050       -0.45833        0.20833        0.46429
 BRILLOUIN|   127           0.00050       -0.45833        0.29167       -0.46429
 BRILLOUIN|   128           0.00050       -0.45833        0.29167       -0.39286
 BRILLOUIN|   129           0.00050       -0.45833        0.29167       -0.32143
 BRILLOUIN|   130           0.00050       -0.45833        0.29167       -0.25000
 BRILLOUIN|   131           0.00050       -0.45833        0.29167       -0.17857
 BRILLOUIN|   132           0.00050       -0.45833        0.29167       -0.10714
 BRILLOUIN|   133           0.00050       -0.45833        0.29167       -0.03571
 BRILLOUIN|   134           0.00050       -0.45833        0.29167        0.03571
 BRILLOUIN|   135           0.00050       -0.45833        0.29167        0.10714
 BRILLOUIN|   136           0.00050       -0.45833        0.29167        0.17857
 BRILLOUIN|   137           0.00050       -0.45833        0.29167        0.25000
 BRILLOUIN|   138           0.00050       -0.45833        0.29167        0.32143
 BRILLOUIN|   139           0.00050       -0.45833        0.29167        0.39286
 BRILLOUIN|   140           0.00050       -0.45833        0.29167        0.46429
 BRILLOUIN|   141           0.00050       -0.45833        0.37500       -0.46429
 BRILLOUIN|   142           0.00050       -0.45833        0.37500       -0.39286
 BRILLOUIN|   143           0.00050       -0.45833        0.37500       -0.32143
 BRILLOUIN|   144           0.00050       -0.45833        0.37500       -0.25000
 BRILLOUIN|   145           0.00050       -0.45833        0.37500       -0.17857
 BRILLOUIN|   146           0.00050       -0.45833        0.37500       -0.10714
 BRILLOUIN|   147           0.00050       -0.45833        0.37500       -0.03571
 BRILLOUIN|   148           0.00050       -0.45833        0.37500        0.03571
 BRILLOUIN|   149           0.00050       -0.45833        0.37500        0.10714
 BRILLOUIN|   150           0.00050       -0.45833        0.37500        0.17857
 BRILLOUIN|   151           0.00050       -0.45833        0.37500        0.25000
 BRILLOUIN|   152           0.00050       -0.45833        0.37500        0.32143
 BRILLOUIN|   153           0.00050       -0.45833        0.37500        0.39286
 BRILLOUIN|   154           0.00050       -0.45833        0.37500        0.46429
 BRILLOUIN|   155           0.00050       -0.45833        0.45833       -0.46429
 BRILLOUIN|   156           0.00050       -0.45833        0.45833       -0.39286
 BRILLOUIN|   157           0.00050       -0.45833        0.45833       -0.32143
 BRILLOUIN|   158           0.00050       -0.45833        0.45833       -0.25000
 BRILLOUIN|   159           0.00050       -0.45833        0.45833       -0.17857
 BRILLOUIN|   160           0.00050       -0.45833        0.45833       -0.10714
 BRILLOUIN|   161           0.00050       -0.45833        0.45833       -0.03571
 BRILLOUIN|   162           0.00050       -0.45833        0.45833        0.03571
 BRILLOUIN|   163           0.00050       -0.45833        0.45833        0.10714
 BRILLOUIN|   164           0.00050       -0.45833        0.45833        0.17857
 BRILLOUIN|   165           0.00050       -0.45833        0.45833        0.25000
 BRILLOUIN|   166           0.00050       -0.45833        0.45833        0.32143
 BRILLOUIN|   167           0.00050       -0.45833        0.45833        0.39286
 BRILLOUIN|   168           0.00050       -0.45833        0.45833        0.46429
 BRILLOUIN|   169           0.00050       -0.37500       -0.45833       -0.46429
 BRILLOUIN|   170           0.00050       -0.37500       -0.45833       -0.39286
 BRILLOUIN|   171           0.00050       -0.37500       -0.45833       -0.32143
 BRILLOUIN|   172           0.00050       -0.37500       -0.45833       -0.25000
 BRILLOUIN|   173           0.00050       -0.37500       -0.45833       -0.17857
 BRILLOUIN|   174           0.00050       -0.37500       -0.45833       -0.10714
 BRILLOUIN|   175           0.00050       -0.37500       -0.45833       -0.03571
 BRILLOUIN|   176           0.00050       -0.37500       -0.45833        0.03571
 BRILLOUIN|   177           0.00050       -0.37500       -0.45833        0.10714
 BRILLOUIN|   178           0.00050       -0.37500       -0.45833        0.17857
 BRILLOUIN|   179           0.00050       -0.37500       -0.45833        0.25000
 BRILLOUIN|   180           0.00050       -0.37500       -0.45833        0.32143
 BRILLOUIN|   181           0.00050       -0.37500       -0.45833        0.39286
 BRILLOUIN|   182           0.00050       -0.37500       -0.45833        0.46429
 BRILLOUIN|   183           0.00050       -0.37500       -0.37500       -0.46429
 BRILLOUIN|   184           0.00050       -0.37500       -0.37500       -0.39286
 BRILLOUIN|   185           0.00050       -0.37500       -0.37500       -0.32143
 BRILLOUIN|   186           0.00050       -0.37500       -0.37500       -0.25000
 BRILLOUIN|   187           0.00050       -0.37500       -0.37500       -0.17857
 BRILLOUIN|   188           0.00050       -0.37500       -0.37500       -0.10714
 BRILLOUIN|   189           0.00050       -0.37500       -0.37500       -0.03571
 BRILLOUIN|   190           0.00050       -0.37500       -0.37500        0.03571
 BRILLOUIN|   191           0.00050       -0.37500       -0.37500        0.10714
 BRILLOUIN|   192           0.00050       -0.37500       -0.37500        0.17857
 BRILLOUIN|   193           0.00050       -0.37500       -0.37500        0.25000
 BRILLOUIN|   194           0.00050       -0.37500       -0.37500        0.32143
 BRILLOUIN|   195           0.00050       -0.37500       -0.37500        0.39286
 BRILLOUIN|   196           0.00050       -0.37500       -0.37500        0.46429
 BRILLOUIN|   197           0.00050       -0.37500       -0.29167       -0.46429
 BRILLOUIN|   198           0.00050       -0.37500       -0.29167       -0.39286
 BRILLOUIN|   199           0.00050       -0.37500       -0.29167       -0.32143
 BRILLOUIN|   200           0.00050       -0.37500       -0.29167       -0.25000
 BRILLOUIN|   201           0.00050       -0.37500       -0.29167       -0.17857
 BRILLOUIN|   202           0.00050       -0.37500       -0.29167       -0.10714
 BRILLOUIN|   203           0.00050       -0.37500       -0.29167       -0.03571
 BRILLOUIN|   204           0.00050       -0.37500       -0.29167        0.03571
 BRILLOUIN|   205           0.00050       -0.37500       -0.29167        0.10714
 BRILLOUIN|   206           0.00050       -0.37500       -0.29167        0.17857
 BRILLOUIN|   207           0.00050       -0.37500       -0.29167        0.25000
 BRILLOUIN|   208           0.00050       -0.37500       -0.29167        0.32143
 BRILLOUIN|   209           0.00050       -0.37500       -0.29167        0.39286
 BRILLOUIN|   210           0.00050       -0.37500       -0.29167        0.46429
 BRILLOUIN|   211           0.00050       -0.37500       -0.20833       -0.46429
 BRILLOUIN|   212           0.00050       -0.37500       -0.20833       -0.39286
 BRILLOUIN|   213           0.00050       -0.37500       -0.20833       -0.32143
 BRILLOUIN|   214           0.00050       -0.37500       -0.20833       -0.25000
 BRILLOUIN|   215           0.00050       -0.37500       -0.20833       -0.17857
 BRILLOUIN|   216           0.00050       -0.37500       -0.20833       -0.10714
 BRILLOUIN|   217           0.00050       -0.37500       -0.20833       -0.03571
 BRILLOUIN|   218           0.00050       -0.37500       -0.20833        0.03571
 BRILLOUIN|   219           0.00050       -0.37500       -0.20833        0.10714
 BRILLOUIN|   220           0.00050       -0.37500       -0.20833        0.17857
 BRILLOUIN|   221           0.00050       -0.37500       -0.20833        0.25000
 BRILLOUIN|   222           0.00050       -0.37500       -0.20833        0.32143
 BRILLOUIN|   223           0.00050       -0.37500       -0.20833        0.39286
 BRILLOUIN|   224           0.00050       -0.37500       -0.20833        0.46429
 BRILLOUIN|   225           0.00050       -0.37500       -0.12500       -0.46429
 BRILLOUIN|   226           0.00050       -0.37500       -0.12500       -0.39286
 BRILLOUIN|   227           0.00050       -0.37500       -0.12500       -0.32143
 BRILLOUIN|   228           0.00050       -0.37500       -0.12500       -0.25000
 BRILLOUIN|   229           0.00050       -0.37500       -0.12500       -0.17857
 BRILLOUIN|   230           0.00050       -0.37500       -0.12500       -0.10714
 BRILLOUIN|   231           0.00050       -0.37500       -0.12500       -0.03571
 BRILLOUIN|   232           0.00050       -0.37500       -0.12500        0.03571
 BRILLOUIN|   233           0.00050       -0.37500       -0.12500        0.10714
 BRILLOUIN|   234           0.00050       -0.37500       -0.12500        0.17857
 BRILLOUIN|   235           0.00050       -0.37500       -0.12500        0.25000
 BRILLOUIN|   236           0.00050       -0.37500       -0.12500        0.32143
 BRILLOUIN|   237           0.00050       -0.37500       -0.12500        0.39286
 BRILLOUIN|   238           0.00050       -0.37500       -0.12500        0.46429
 BRILLOUIN|   239           0.00050       -0.37500       -0.04167       -0.46429
 BRILLOUIN|   240           0.00050       -0.37500       -0.04167       -0.39286
 BRILLOUIN|   241           0.00050       -0.37500       -0.04167       -0.32143
 BRILLOUIN|   242           0.00050       -0.37500       -0.04167       -0.25000
 BRILLOUIN|   243           0.00050       -0.37500       -0.04167       -0.17857
 BRILLOUIN|   244           0.00050       -0.37500       -0.04167       -0.10714
 BRILLOUIN|   245           0.00050       -0.37500       -0.04167       -0.03571
 BRILLOUIN|   246           0.00050       -0.37500       -0.04167        0.03571
 BRILLOUIN|   247           0.00050       -0.37500       -0.04167        0.10714
 BRILLOUIN|   248           0.00050       -0.37500       -0.04167        0.17857
 BRILLOUIN|   249           0.00050       -0.37500       -0.04167        0.25000
 BRILLOUIN|   250           0.00050       -0.37500       -0.04167        0.32143
 BRILLOUIN|   251           0.00050       -0.37500       -0.04167        0.39286
 BRILLOUIN|   252           0.00050       -0.37500       -0.04167        0.46429
 BRILLOUIN|   253           0.00050       -0.37500        0.04167       -0.46429
 BRILLOUIN|   254           0.00050       -0.37500        0.04167       -0.39286
 BRILLOUIN|   255           0.00050       -0.37500        0.04167       -0.32143
 BRILLOUIN|   256           0.00050       -0.37500        0.04167       -0.25000
 BRILLOUIN|   257           0.00050       -0.37500        0.04167       -0.17857
 BRILLOUIN|   258           0.00050       -0.37500        0.04167       -0.10714
 BRILLOUIN|   259           0.00050       -0.37500        0.04167       -0.03571
 BRILLOUIN|   260           0.00050       -0.37500        0.04167        0.03571
 BRILLOUIN|   261           0.00050       -0.37500        0.04167        0.10714
 BRILLOUIN|   262           0.00050       -0.37500        0.04167        0.17857
 BRILLOUIN|   263           0.00050       -0.37500        0.04167        0.25000
 BRILLOUIN|   264           0.00050       -0.37500        0.04167        0.32143
 BRILLOUIN|   265           0.00050       -0.37500        0.04167        0.39286
 BRILLOUIN|   266           0.00050       -0.37500        0.04167        0.46429
 BRILLOUIN|   267           0.00050       -0.37500        0.12500       -0.46429
 BRILLOUIN|   268           0.00050       -0.37500        0.12500       -0.39286
 BRILLOUIN|   269           0.00050       -0.37500        0.12500       -0.32143
 BRILLOUIN|   270           0.00050       -0.37500        0.12500       -0.25000
 BRILLOUIN|   271           0.00050       -0.37500        0.12500       -0.17857
 BRILLOUIN|   272           0.00050       -0.37500        0.12500       -0.10714
 BRILLOUIN|   273           0.00050       -0.37500        0.12500       -0.03571
 BRILLOUIN|   274           0.00050       -0.37500        0.12500        0.03571
 BRILLOUIN|   275           0.00050       -0.37500        0.12500        0.10714
 BRILLOUIN|   276           0.00050       -0.37500        0.12500        0.17857
 BRILLOUIN|   277           0.00050       -0.37500        0.12500        0.25000
 BRILLOUIN|   278           0.00050       -0.37500        0.12500        0.32143
 BRILLOUIN|   279           0.00050       -0.37500        0.12500        0.39286
 BRILLOUIN|   280           0.00050       -0.37500        0.12500        0.46429
 BRILLOUIN|   281           0.00050       -0.37500        0.20833       -0.46429
 BRILLOUIN|   282           0.00050       -0.37500        0.20833       -0.39286
 BRILLOUIN|   283           0.00050       -0.37500        0.20833       -0.32143
 BRILLOUIN|   284           0.00050       -0.37500        0.20833       -0.25000
 BRILLOUIN|   285           0.00050       -0.37500        0.20833       -0.17857
 BRILLOUIN|   286           0.00050       -0.37500        0.20833       -0.10714
 BRILLOUIN|   287           0.00050       -0.37500        0.20833       -0.03571
 BRILLOUIN|   288           0.00050       -0.37500        0.20833        0.03571
 BRILLOUIN|   289           0.00050       -0.37500        0.20833        0.10714
 BRILLOUIN|   290           0.00050       -0.37500        0.20833        0.17857
 BRILLOUIN|   291           0.00050       -0.37500        0.20833        0.25000
 BRILLOUIN|   292           0.00050       -0.37500        0.20833        0.32143
 BRILLOUIN|   293           0.00050       -0.37500        0.20833        0.39286
 BRILLOUIN|   294           0.00050       -0.37500        0.20833        0.46429
 BRILLOUIN|   295           0.00050       -0.37500        0.29167       -0.46429
 BRILLOUIN|   296           0.00050       -0.37500        0.29167       -0.39286
 BRILLOUIN|   297           0.00050       -0.37500        0.29167       -0.32143
 BRILLOUIN|   298           0.00050       -0.37500        0.29167       -0.25000
 BRILLOUIN|   299           0.00050       -0.37500        0.29167       -0.17857
 BRILLOUIN|   300           0.00050       -0.37500        0.29167       -0.10714
 BRILLOUIN|   301           0.00050       -0.37500        0.29167       -0.03571
 BRILLOUIN|   302           0.00050       -0.37500        0.29167        0.03571
 BRILLOUIN|   303           0.00050       -0.37500        0.29167        0.10714
 BRILLOUIN|   304           0.00050       -0.37500        0.29167        0.17857
 BRILLOUIN|   305           0.00050       -0.37500        0.29167        0.25000
 BRILLOUIN|   306           0.00050       -0.37500        0.29167        0.32143
 BRILLOUIN|   307           0.00050       -0.37500        0.29167        0.39286
 BRILLOUIN|   308           0.00050       -0.37500        0.29167        0.46429
 BRILLOUIN|   309           0.00050       -0.37500        0.37500       -0.46429
 BRILLOUIN|   310           0.00050       -0.37500        0.37500       -0.39286
 BRILLOUIN|   311           0.00050       -0.37500        0.37500       -0.32143
 BRILLOUIN|   312           0.00050       -0.37500        0.37500       -0.25000
 BRILLOUIN|   313           0.00050       -0.37500        0.37500       -0.17857
 BRILLOUIN|   314           0.00050       -0.37500        0.37500       -0.10714
 BRILLOUIN|   315           0.00050       -0.37500        0.37500       -0.03571
 BRILLOUIN|   316           0.00050       -0.37500        0.37500        0.03571
 BRILLOUIN|   317           0.00050       -0.37500        0.37500        0.10714
 BRILLOUIN|   318           0.00050       -0.37500        0.37500        0.17857
 BRILLOUIN|   319           0.00050       -0.37500        0.37500        0.25000
 BRILLOUIN|   320           0.00050       -0.37500        0.37500        0.32143
 BRILLOUIN|   321           0.00050       -0.37500        0.37500        0.39286
 BRILLOUIN|   322           0.00050       -0.37500        0.37500        0.46429
 BRILLOUIN|   323           0.00050       -0.37500        0.45833       -0.46429
 BRILLOUIN|   324           0.00050       -0.37500        0.45833       -0.39286
 BRILLOUIN|   325           0.00050       -0.37500        0.45833       -0.32143
 BRILLOUIN|   326           0.00050       -0.37500        0.45833       -0.25000
 BRILLOUIN|   327           0.00050       -0.37500        0.45833       -0.17857
 BRILLOUIN|   328           0.00050       -0.37500        0.45833       -0.10714
 BRILLOUIN|   329           0.00050       -0.37500        0.45833       -0.03571
 BRILLOUIN|   330           0.00050       -0.37500        0.45833        0.03571
 BRILLOUIN|   331           0.00050       -0.37500        0.45833        0.10714
 BRILLOUIN|   332           0.00050       -0.37500        0.45833        0.17857
 BRILLOUIN|   333           0.00050       -0.37500        0.45833        0.25000
 BRILLOUIN|   334           0.00050       -0.37500        0.45833        0.32143
 BRILLOUIN|   335           0.00050       -0.37500        0.45833        0.39286
 BRILLOUIN|   336           0.00050       -0.37500        0.45833        0.46429
 BRILLOUIN|   337           0.00050       -0.29167       -0.45833       -0.46429
 BRILLOUIN|   338           0.00050       -0.29167       -0.45833       -0.39286
 BRILLOUIN|   339           0.00050       -0.29167       -0.45833       -0.32143
 BRILLOUIN|   340           0.00050       -0.29167       -0.45833       -0.25000
 BRILLOUIN|   341           0.00050       -0.29167       -0.45833       -0.17857
 BRILLOUIN|   342           0.00050       -0.29167       -0.45833       -0.10714
 BRILLOUIN|   343           0.00050       -0.29167       -0.45833       -0.03571
 BRILLOUIN|   344           0.00050       -0.29167       -0.45833        0.03571
 BRILLOUIN|   345           0.00050       -0.29167       -0.45833        0.10714
 BRILLOUIN|   346           0.00050       -0.29167       -0.45833        0.17857
 BRILLOUIN|   347           0.00050       -0.29167       -0.45833        0.25000
 BRILLOUIN|   348           0.00050       -0.29167       -0.45833        0.32143
 BRILLOUIN|   349           0.00050       -0.29167       -0.45833        0.39286
 BRILLOUIN|   350           0.00050       -0.29167       -0.45833        0.46429
 BRILLOUIN|   351           0.00050       -0.29167       -0.37500       -0.46429
 BRILLOUIN|   352           0.00050       -0.29167       -0.37500       -0.39286
 BRILLOUIN|   353           0.00050       -0.29167       -0.37500       -0.32143
 BRILLOUIN|   354           0.00050       -0.29167       -0.37500       -0.25000
 BRILLOUIN|   355           0.00050       -0.29167       -0.37500       -0.17857
 BRILLOUIN|   356           0.00050       -0.29167       -0.37500       -0.10714
 BRILLOUIN|   357           0.00050       -0.29167       -0.37500       -0.03571
 BRILLOUIN|   358           0.00050       -0.29167       -0.37500        0.03571
 BRILLOUIN|   359           0.00050       -0.29167       -0.37500        0.10714
 BRILLOUIN|   360           0.00050       -0.29167       -0.37500        0.17857
 BRILLOUIN|   361           0.00050       -0.29167       -0.37500        0.25000
 BRILLOUIN|   362           0.00050       -0.29167       -0.37500        0.32143
 BRILLOUIN|   363           0.00050       -0.29167       -0.37500        0.39286
 BRILLOUIN|   364           0.00050       -0.29167       -0.37500        0.46429
 BRILLOUIN|   365           0.00050       -0.29167       -0.29167       -0.46429
 BRILLOUIN|   366           0.00050       -0.29167       -0.29167       -0.39286
 BRILLOUIN|   367           0.00050       -0.29167       -0.29167       -0.32143
 BRILLOUIN|   368           0.00050       -0.29167       -0.29167       -0.25000
 BRILLOUIN|   369           0.00050       -0.29167       -0.29167       -0.17857
 BRILLOUIN|   370           0.00050       -0.29167       -0.29167       -0.10714
 BRILLOUIN|   371           0.00050       -0.29167       -0.29167       -0.03571
 BRILLOUIN|   372           0.00050       -0.29167       -0.29167        0.03571
 BRILLOUIN|   373           0.00050       -0.29167       -0.29167        0.10714
 BRILLOUIN|   374           0.00050       -0.29167       -0.29167        0.17857
 BRILLOUIN|   375           0.00050       -0.29167       -0.29167        0.25000
 BRILLOUIN|   376           0.00050       -0.29167       -0.29167        0.32143
 BRILLOUIN|   377           0.00050       -0.29167       -0.29167        0.39286
 BRILLOUIN|   378           0.00050       -0.29167       -0.29167        0.46429
 BRILLOUIN|   379           0.00050       -0.29167       -0.20833       -0.46429
 BRILLOUIN|   380           0.00050       -0.29167       -0.20833       -0.39286
 BRILLOUIN|   381           0.00050       -0.29167       -0.20833       -0.32143
 BRILLOUIN|   382           0.00050       -0.29167       -0.20833       -0.25000
 BRILLOUIN|   383           0.00050       -0.29167       -0.20833       -0.17857
 BRILLOUIN|   384           0.00050       -0.29167       -0.20833       -0.10714
 BRILLOUIN|   385           0.00050       -0.29167       -0.20833       -0.03571
 BRILLOUIN|   386           0.00050       -0.29167       -0.20833        0.03571
 BRILLOUIN|   387           0.00050       -0.29167       -0.20833        0.10714
 BRILLOUIN|   388           0.00050       -0.29167       -0.20833        0.17857
 BRILLOUIN|   389           0.00050       -0.29167       -0.20833        0.25000
 BRILLOUIN|   390           0.00050       -0.29167       -0.20833        0.32143
 BRILLOUIN|   391           0.00050       -0.29167       -0.20833        0.39286
 BRILLOUIN|   392           0.00050       -0.29167       -0.20833        0.46429
 BRILLOUIN|   393           0.00050       -0.29167       -0.12500       -0.46429
 BRILLOUIN|   394           0.00050       -0.29167       -0.12500       -0.39286
 BRILLOUIN|   395           0.00050       -0.29167       -0.12500       -0.32143
 BRILLOUIN|   396           0.00050       -0.29167       -0.12500       -0.25000
 BRILLOUIN|   397           0.00050       -0.29167       -0.12500       -0.17857
 BRILLOUIN|   398           0.00050       -0.29167       -0.12500       -0.10714
 BRILLOUIN|   399           0.00050       -0.29167       -0.12500       -0.03571
 BRILLOUIN|   400           0.00050       -0.29167       -0.12500        0.03571
 BRILLOUIN|   401           0.00050       -0.29167       -0.12500        0.10714
 BRILLOUIN|   402           0.00050       -0.29167       -0.12500        0.17857
 BRILLOUIN|   403           0.00050       -0.29167       -0.12500        0.25000
 BRILLOUIN|   404           0.00050       -0.29167       -0.12500        0.32143
 BRILLOUIN|   405           0.00050       -0.29167       -0.12500        0.39286
 BRILLOUIN|   406           0.00050       -0.29167       -0.12500        0.46429
 BRILLOUIN|   407           0.00050       -0.29167       -0.04167       -0.46429
 BRILLOUIN|   408           0.00050       -0.29167       -0.04167       -0.39286
 BRILLOUIN|   409           0.00050       -0.29167       -0.04167       -0.32143
 BRILLOUIN|   410           0.00050       -0.29167       -0.04167       -0.25000
 BRILLOUIN|   411           0.00050       -0.29167       -0.04167       -0.17857
 BRILLOUIN|   412           0.00050       -0.29167       -0.04167       -0.10714
 BRILLOUIN|   413           0.00050       -0.29167       -0.04167       -0.03571
 BRILLOUIN|   414           0.00050       -0.29167       -0.04167        0.03571
 BRILLOUIN|   415           0.00050       -0.29167       -0.04167        0.10714
 BRILLOUIN|   416           0.00050       -0.29167       -0.04167        0.17857
 BRILLOUIN|   417           0.00050       -0.29167       -0.04167        0.25000
 BRILLOUIN|   418           0.00050       -0.29167       -0.04167        0.32143
 BRILLOUIN|   419           0.00050       -0.29167       -0.04167        0.39286
 BRILLOUIN|   420           0.00050       -0.29167       -0.04167        0.46429
 BRILLOUIN|   421           0.00050       -0.29167        0.04167       -0.46429
 BRILLOUIN|   422           0.00050       -0.29167        0.04167       -0.39286
 BRILLOUIN|   423           0.00050       -0.29167        0.04167       -0.32143
 BRILLOUIN|   424           0.00050       -0.29167        0.04167       -0.25000
 BRILLOUIN|   425           0.00050       -0.29167        0.04167       -0.17857
 BRILLOUIN|   426           0.00050       -0.29167        0.04167       -0.10714
 BRILLOUIN|   427           0.00050       -0.29167        0.04167       -0.03571
 BRILLOUIN|   428           0.00050       -0.29167        0.04167        0.03571
 BRILLOUIN|   429           0.00050       -0.29167        0.04167        0.10714
 BRILLOUIN|   430           0.00050       -0.29167        0.04167        0.17857
 BRILLOUIN|   431           0.00050       -0.29167        0.04167        0.25000
 BRILLOUIN|   432           0.00050       -0.29167        0.04167        0.32143
 BRILLOUIN|   433           0.00050       -0.29167        0.04167        0.39286
 BRILLOUIN|   434           0.00050       -0.29167        0.04167        0.46429
 BRILLOUIN|   435           0.00050       -0.29167        0.12500       -0.46429
 BRILLOUIN|   436           0.00050       -0.29167        0.12500       -0.39286
 BRILLOUIN|   437           0.00050       -0.29167        0.12500       -0.32143
 BRILLOUIN|   438           0.00050       -0.29167        0.12500       -0.25000
 BRILLOUIN|   439           0.00050       -0.29167        0.12500       -0.17857
 BRILLOUIN|   440           0.00050       -0.29167        0.12500       -0.10714
 BRILLOUIN|   441           0.00050       -0.29167        0.12500       -0.03571
 BRILLOUIN|   442           0.00050       -0.29167        0.12500        0.03571
 BRILLOUIN|   443           0.00050       -0.29167        0.12500        0.10714
 BRILLOUIN|   444           0.00050       -0.29167        0.12500        0.17857
 BRILLOUIN|   445           0.00050       -0.29167        0.12500        0.25000
 BRILLOUIN|   446           0.00050       -0.29167        0.12500        0.32143
 BRILLOUIN|   447           0.00050       -0.29167        0.12500        0.39286
 BRILLOUIN|   448           0.00050       -0.29167        0.12500        0.46429
 BRILLOUIN|   449           0.00050       -0.29167        0.20833       -0.46429
 BRILLOUIN|   450           0.00050       -0.29167        0.20833       -0.39286
 BRILLOUIN|   451           0.00050       -0.29167        0.20833       -0.32143
 BRILLOUIN|   452           0.00050       -0.29167        0.20833       -0.25000
 BRILLOUIN|   453           0.00050       -0.29167        0.20833       -0.17857
 BRILLOUIN|   454           0.00050       -0.29167        0.20833       -0.10714
 BRILLOUIN|   455           0.00050       -0.29167        0.20833       -0.03571
 BRILLOUIN|   456           0.00050       -0.29167        0.20833        0.03571
 BRILLOUIN|   457           0.00050       -0.29167        0.20833        0.10714
 BRILLOUIN|   458           0.00050       -0.29167        0.20833        0.17857
 BRILLOUIN|   459           0.00050       -0.29167        0.20833        0.25000
 BRILLOUIN|   460           0.00050       -0.29167        0.20833        0.32143
 BRILLOUIN|   461           0.00050       -0.29167        0.20833        0.39286
 BRILLOUIN|   462           0.00050       -0.29167        0.20833        0.46429
 BRILLOUIN|   463           0.00050       -0.29167        0.29167       -0.46429
 BRILLOUIN|   464           0.00050       -0.29167        0.29167       -0.39286
 BRILLOUIN|   465           0.00050       -0.29167        0.29167       -0.32143
 BRILLOUIN|   466           0.00050       -0.29167        0.29167       -0.25000
 BRILLOUIN|   467           0.00050       -0.29167        0.29167       -0.17857
 BRILLOUIN|   468           0.00050       -0.29167        0.29167       -0.10714
 BRILLOUIN|   469           0.00050       -0.29167        0.29167       -0.03571
 BRILLOUIN|   470           0.00050       -0.29167        0.29167        0.03571
 BRILLOUIN|   471           0.00050       -0.29167        0.29167        0.10714
 BRILLOUIN|   472           0.00050       -0.29167        0.29167        0.17857
 BRILLOUIN|   473           0.00050       -0.29167        0.29167        0.25000
 BRILLOUIN|   474           0.00050       -0.29167        0.29167        0.32143
 BRILLOUIN|   475           0.00050       -0.29167        0.29167        0.39286
 BRILLOUIN|   476           0.00050       -0.29167        0.29167        0.46429
 BRILLOUIN|   477           0.00050       -0.29167        0.37500       -0.46429
 BRILLOUIN|   478           0.00050       -0.29167        0.37500       -0.39286
 BRILLOUIN|   479           0.00050       -0.29167        0.37500       -0.32143
 BRILLOUIN|   480           0.00050       -0.29167        0.37500       -0.25000
 BRILLOUIN|   481           0.00050       -0.29167        0.37500       -0.17857
 BRILLOUIN|   482           0.00050       -0.29167        0.37500       -0.10714
 BRILLOUIN|   483           0.00050       -0.29167        0.37500       -0.03571
 BRILLOUIN|   484           0.00050       -0.29167        0.37500        0.03571
 BRILLOUIN|   485           0.00050       -0.29167        0.37500        0.10714
 BRILLOUIN|   486           0.00050       -0.29167        0.37500        0.17857
 BRILLOUIN|   487           0.00050       -0.29167        0.37500        0.25000
 BRILLOUIN|   488           0.00050       -0.29167        0.37500        0.32143
 BRILLOUIN|   489           0.00050       -0.29167        0.37500        0.39286
 BRILLOUIN|   490           0.00050       -0.29167        0.37500        0.46429
 BRILLOUIN|   491           0.00050       -0.29167        0.45833       -0.46429
 BRILLOUIN|   492           0.00050       -0.29167        0.45833       -0.39286
 BRILLOUIN|   493           0.00050       -0.29167        0.45833       -0.32143
 BRILLOUIN|   494           0.00050       -0.29167        0.45833       -0.25000
 BRILLOUIN|   495           0.00050       -0.29167        0.45833       -0.17857
 BRILLOUIN|   496           0.00050       -0.29167        0.45833       -0.10714
 BRILLOUIN|   497           0.00050       -0.29167        0.45833       -0.03571
 BRILLOUIN|   498           0.00050       -0.29167        0.45833        0.03571
 BRILLOUIN|   499           0.00050       -0.29167        0.45833        0.10714
 BRILLOUIN|   500           0.00050       -0.29167        0.45833        0.17857
 BRILLOUIN|   501           0.00050       -0.29167        0.45833        0.25000
 BRILLOUIN|   502           0.00050       -0.29167        0.45833        0.32143
 BRILLOUIN|   503           0.00050       -0.29167        0.45833        0.39286
 BRILLOUIN|   504           0.00050       -0.29167        0.45833        0.46429
 BRILLOUIN|   505           0.00050       -0.20833       -0.45833       -0.46429
 BRILLOUIN|   506           0.00050       -0.20833       -0.45833       -0.39286
 BRILLOUIN|   507           0.00050       -0.20833       -0.45833       -0.32143
 BRILLOUIN|   508           0.00050       -0.20833       -0.45833       -0.25000
 BRILLOUIN|   509           0.00050       -0.20833       -0.45833       -0.17857
 BRILLOUIN|   510           0.00050       -0.20833       -0.45833       -0.10714
 BRILLOUIN|   511           0.00050       -0.20833       -0.45833       -0.03571
 BRILLOUIN|   512           0.00050       -0.20833       -0.45833        0.03571
 BRILLOUIN|   513           0.00050       -0.20833       -0.45833        0.10714
 BRILLOUIN|   514           0.00050       -0.20833       -0.45833        0.17857
 BRILLOUIN|   515           0.00050       -0.20833       -0.45833        0.25000
 BRILLOUIN|   516           0.00050       -0.20833       -0.45833        0.32143
 BRILLOUIN|   517           0.00050       -0.20833       -0.45833        0.39286
 BRILLOUIN|   518           0.00050       -0.20833       -0.45833        0.46429
 BRILLOUIN|   519           0.00050       -0.20833       -0.37500       -0.46429
 BRILLOUIN|   520           0.00050       -0.20833       -0.37500       -0.39286
 BRILLOUIN|   521           0.00050       -0.20833       -0.37500       -0.32143
 BRILLOUIN|   522           0.00050       -0.20833       -0.37500       -0.25000
 BRILLOUIN|   523           0.00050       -0.20833       -0.37500       -0.17857
 BRILLOUIN|   524           0.00050       -0.20833       -0.37500       -0.10714
 BRILLOUIN|   525           0.00050       -0.20833       -0.37500       -0.03571
 BRILLOUIN|   526           0.00050       -0.20833       -0.37500        0.03571
 BRILLOUIN|   527           0.00050       -0.20833       -0.37500        0.10714
 BRILLOUIN|   528           0.00050       -0.20833       -0.37500        0.17857
 BRILLOUIN|   529           0.00050       -0.20833       -0.37500        0.25000
 BRILLOUIN|   530           0.00050       -0.20833       -0.37500        0.32143
 BRILLOUIN|   531           0.00050       -0.20833       -0.37500        0.39286
 BRILLOUIN|   532           0.00050       -0.20833       -0.37500        0.46429
 BRILLOUIN|   533           0.00050       -0.20833       -0.29167       -0.46429
 BRILLOUIN|   534           0.00050       -0.20833       -0.29167       -0.39286
 BRILLOUIN|   535           0.00050       -0.20833       -0.29167       -0.32143
 BRILLOUIN|   536           0.00050       -0.20833       -0.29167       -0.25000
 BRILLOUIN|   537           0.00050       -0.20833       -0.29167       -0.17857
 BRILLOUIN|   538           0.00050       -0.20833       -0.29167       -0.10714
 BRILLOUIN|   539           0.00050       -0.20833       -0.29167       -0.03571
 BRILLOUIN|   540           0.00050       -0.20833       -0.29167        0.03571
 BRILLOUIN|   541           0.00050       -0.20833       -0.29167        0.10714
 BRILLOUIN|   542           0.00050       -0.20833       -0.29167        0.17857
 BRILLOUIN|   543           0.00050       -0.20833       -0.29167        0.25000
 BRILLOUIN|   544           0.00050       -0.20833       -0.29167        0.32143
 BRILLOUIN|   545           0.00050       -0.20833       -0.29167        0.39286
 BRILLOUIN|   546           0.00050       -0.20833       -0.29167        0.46429
 BRILLOUIN|   547           0.00050       -0.20833       -0.20833       -0.46429
 BRILLOUIN|   548           0.00050       -0.20833       -0.20833       -0.39286
 BRILLOUIN|   549           0.00050       -0.20833       -0.20833       -0.32143
 BRILLOUIN|   550           0.00050       -0.20833       -0.20833       -0.25000
 BRILLOUIN|   551           0.00050       -0.20833       -0.20833       -0.17857
 BRILLOUIN|   552           0.00050       -0.20833       -0.20833       -0.10714
 BRILLOUIN|   553           0.00050       -0.20833       -0.20833       -0.03571
 BRILLOUIN|   554           0.00050       -0.20833       -0.20833        0.03571
 BRILLOUIN|   555           0.00050       -0.20833       -0.20833        0.10714
 BRILLOUIN|   556           0.00050       -0.20833       -0.20833        0.17857
 BRILLOUIN|   557           0.00050       -0.20833       -0.20833        0.25000
 BRILLOUIN|   558           0.00050       -0.20833       -0.20833        0.32143
 BRILLOUIN|   559           0.00050       -0.20833       -0.20833        0.39286
 BRILLOUIN|   560           0.00050       -0.20833       -0.20833        0.46429
 BRILLOUIN|   561           0.00050       -0.20833       -0.12500       -0.46429
 BRILLOUIN|   562           0.00050       -0.20833       -0.12500       -0.39286
 BRILLOUIN|   563           0.00050       -0.20833       -0.12500       -0.32143
 BRILLOUIN|   564           0.00050       -0.20833       -0.12500       -0.25000
 BRILLOUIN|   565           0.00050       -0.20833       -0.12500       -0.17857
 BRILLOUIN|   566           0.00050       -0.20833       -0.12500       -0.10714
 BRILLOUIN|   567           0.00050       -0.20833       -0.12500       -0.03571
 BRILLOUIN|   568           0.00050       -0.20833       -0.12500        0.03571
 BRILLOUIN|   569           0.00050       -0.20833       -0.12500        0.10714
 BRILLOUIN|   570           0.00050       -0.20833       -0.12500        0.17857
 BRILLOUIN|   571           0.00050       -0.20833       -0.12500        0.25000
 BRILLOUIN|   572           0.00050       -0.20833       -0.12500        0.32143
 BRILLOUIN|   573           0.00050       -0.20833       -0.12500        0.39286
 BRILLOUIN|   574           0.00050       -0.20833       -0.12500        0.46429
 BRILLOUIN|   575           0.00050       -0.20833       -0.04167       -0.46429
 BRILLOUIN|   576           0.00050       -0.20833       -0.04167       -0.39286
 BRILLOUIN|   577           0.00050       -0.20833       -0.04167       -0.32143
 BRILLOUIN|   578           0.00050       -0.20833       -0.04167       -0.25000
 BRILLOUIN|   579           0.00050       -0.20833       -0.04167       -0.17857
 BRILLOUIN|   580           0.00050       -0.20833       -0.04167       -0.10714
 BRILLOUIN|   581           0.00050       -0.20833       -0.04167       -0.03571
 BRILLOUIN|   582           0.00050       -0.20833       -0.04167        0.03571
 BRILLOUIN|   583           0.00050       -0.20833       -0.04167        0.10714
 BRILLOUIN|   584           0.00050       -0.20833       -0.04167        0.17857
 BRILLOUIN|   585           0.00050       -0.20833       -0.04167        0.25000
 BRILLOUIN|   586           0.00050       -0.20833       -0.04167        0.32143
 BRILLOUIN|   587           0.00050       -0.20833       -0.04167        0.39286
 BRILLOUIN|   588           0.00050       -0.20833       -0.04167        0.46429
 BRILLOUIN|   589           0.00050       -0.20833        0.04167       -0.46429
 BRILLOUIN|   590           0.00050       -0.20833        0.04167       -0.39286
 BRILLOUIN|   591           0.00050       -0.20833        0.04167       -0.32143
 BRILLOUIN|   592           0.00050       -0.20833        0.04167       -0.25000
 BRILLOUIN|   593           0.00050       -0.20833        0.04167       -0.17857
 BRILLOUIN|   594           0.00050       -0.20833        0.04167       -0.10714
 BRILLOUIN|   595           0.00050       -0.20833        0.04167       -0.03571
 BRILLOUIN|   596           0.00050       -0.20833        0.04167        0.03571
 BRILLOUIN|   597           0.00050       -0.20833        0.04167        0.10714
 BRILLOUIN|   598           0.00050       -0.20833        0.04167        0.17857
 BRILLOUIN|   599           0.00050       -0.20833        0.04167        0.25000
 BRILLOUIN|   600           0.00050       -0.20833        0.04167        0.32143
 BRILLOUIN|   601           0.00050       -0.20833        0.04167        0.39286
 BRILLOUIN|   602           0.00050       -0.20833        0.04167        0.46429
 BRILLOUIN|   603           0.00050       -0.20833        0.12500       -0.46429
 BRILLOUIN|   604           0.00050       -0.20833        0.12500       -0.39286
 BRILLOUIN|   605           0.00050       -0.20833        0.12500       -0.32143
 BRILLOUIN|   606           0.00050       -0.20833        0.12500       -0.25000
 BRILLOUIN|   607           0.00050       -0.20833        0.12500       -0.17857
 BRILLOUIN|   608           0.00050       -0.20833        0.12500       -0.10714
 BRILLOUIN|   609           0.00050       -0.20833        0.12500       -0.03571
 BRILLOUIN|   610           0.00050       -0.20833        0.12500        0.03571
 BRILLOUIN|   611           0.00050       -0.20833        0.12500        0.10714
 BRILLOUIN|   612           0.00050       -0.20833        0.12500        0.17857
 BRILLOUIN|   613           0.00050       -0.20833        0.12500        0.25000
 BRILLOUIN|   614           0.00050       -0.20833        0.12500        0.32143
 BRILLOUIN|   615           0.00050       -0.20833        0.12500        0.39286
 BRILLOUIN|   616           0.00050       -0.20833        0.12500        0.46429
 BRILLOUIN|   617           0.00050       -0.20833        0.20833       -0.46429
 BRILLOUIN|   618           0.00050       -0.20833        0.20833       -0.39286
 BRILLOUIN|   619           0.00050       -0.20833        0.20833       -0.32143
 BRILLOUIN|   620           0.00050       -0.20833        0.20833       -0.25000
 BRILLOUIN|   621           0.00050       -0.20833        0.20833       -0.17857
 BRILLOUIN|   622           0.00050       -0.20833        0.20833       -0.10714
 BRILLOUIN|   623           0.00050       -0.20833        0.20833       -0.03571
 BRILLOUIN|   624           0.00050       -0.20833        0.20833        0.03571
 BRILLOUIN|   625           0.00050       -0.20833        0.20833        0.10714
 BRILLOUIN|   626           0.00050       -0.20833        0.20833        0.17857
 BRILLOUIN|   627           0.00050       -0.20833        0.20833        0.25000
 BRILLOUIN|   628           0.00050       -0.20833        0.20833        0.32143
 BRILLOUIN|   629           0.00050       -0.20833        0.20833        0.39286
 BRILLOUIN|   630           0.00050       -0.20833        0.20833        0.46429
 BRILLOUIN|   631           0.00050       -0.20833        0.29167       -0.46429
 BRILLOUIN|   632           0.00050       -0.20833        0.29167       -0.39286
 BRILLOUIN|   633           0.00050       -0.20833        0.29167       -0.32143
 BRILLOUIN|   634           0.00050       -0.20833        0.29167       -0.25000
 BRILLOUIN|   635           0.00050       -0.20833        0.29167       -0.17857
 BRILLOUIN|   636           0.00050       -0.20833        0.29167       -0.10714
 BRILLOUIN|   637           0.00050       -0.20833        0.29167       -0.03571
 BRILLOUIN|   638           0.00050       -0.20833        0.29167        0.03571
 BRILLOUIN|   639           0.00050       -0.20833        0.29167        0.10714
 BRILLOUIN|   640           0.00050       -0.20833        0.29167        0.17857
 BRILLOUIN|   641           0.00050       -0.20833        0.29167        0.25000
 BRILLOUIN|   642           0.00050       -0.20833        0.29167        0.32143
 BRILLOUIN|   643           0.00050       -0.20833        0.29167        0.39286
 BRILLOUIN|   644           0.00050       -0.20833        0.29167        0.46429
 BRILLOUIN|   645           0.00050       -0.20833        0.37500       -0.46429
 BRILLOUIN|   646           0.00050       -0.20833        0.37500       -0.39286
 BRILLOUIN|   647           0.00050       -0.20833        0.37500       -0.32143
 BRILLOUIN|   648           0.00050       -0.20833        0.37500       -0.25000
 BRILLOUIN|   649           0.00050       -0.20833        0.37500       -0.17857
 BRILLOUIN|   650           0.00050       -0.20833        0.37500       -0.10714
 BRILLOUIN|   651           0.00050       -0.20833        0.37500       -0.03571
 BRILLOUIN|   652           0.00050       -0.20833        0.37500        0.03571
 BRILLOUIN|   653           0.00050       -0.20833        0.37500        0.10714
 BRILLOUIN|   654           0.00050       -0.20833        0.37500        0.17857
 BRILLOUIN|   655           0.00050       -0.20833        0.37500        0.25000
 BRILLOUIN|   656           0.00050       -0.20833        0.37500        0.32143
 BRILLOUIN|   657           0.00050       -0.20833        0.37500        0.39286
 BRILLOUIN|   658           0.00050       -0.20833        0.37500        0.46429
 BRILLOUIN|   659           0.00050       -0.20833        0.45833       -0.46429
 BRILLOUIN|   660           0.00050       -0.20833        0.45833       -0.39286
 BRILLOUIN|   661           0.00050       -0.20833        0.45833       -0.32143
 BRILLOUIN|   662           0.00050       -0.20833        0.45833       -0.25000
 BRILLOUIN|   663           0.00050       -0.20833        0.45833       -0.17857
 BRILLOUIN|   664           0.00050       -0.20833        0.45833       -0.10714
 BRILLOUIN|   665           0.00050       -0.20833        0.45833       -0.03571
 BRILLOUIN|   666           0.00050       -0.20833        0.45833        0.03571
 BRILLOUIN|   667           0.00050       -0.20833        0.45833        0.10714
 BRILLOUIN|   668           0.00050       -0.20833        0.45833        0.17857
 BRILLOUIN|   669           0.00050       -0.20833        0.45833        0.25000
 BRILLOUIN|   670           0.00050       -0.20833        0.45833        0.32143
 BRILLOUIN|   671           0.00050       -0.20833        0.45833        0.39286
 BRILLOUIN|   672           0.00050       -0.20833        0.45833        0.46429
 BRILLOUIN|   673           0.00050       -0.12500       -0.45833       -0.46429
 BRILLOUIN|   674           0.00050       -0.12500       -0.45833       -0.39286
 BRILLOUIN|   675           0.00050       -0.12500       -0.45833       -0.32143
 BRILLOUIN|   676           0.00050       -0.12500       -0.45833       -0.25000
 BRILLOUIN|   677           0.00050       -0.12500       -0.45833       -0.17857
 BRILLOUIN|   678           0.00050       -0.12500       -0.45833       -0.10714
 BRILLOUIN|   679           0.00050       -0.12500       -0.45833       -0.03571
 BRILLOUIN|   680           0.00050       -0.12500       -0.45833        0.03571
 BRILLOUIN|   681           0.00050       -0.12500       -0.45833        0.10714
 BRILLOUIN|   682           0.00050       -0.12500       -0.45833        0.17857
 BRILLOUIN|   683           0.00050       -0.12500       -0.45833        0.25000
 BRILLOUIN|   684           0.00050       -0.12500       -0.45833        0.32143
 BRILLOUIN|   685           0.00050       -0.12500       -0.45833        0.39286
 BRILLOUIN|   686           0.00050       -0.12500       -0.45833        0.46429
 BRILLOUIN|   687           0.00050       -0.12500       -0.37500       -0.46429
 BRILLOUIN|   688           0.00050       -0.12500       -0.37500       -0.39286
 BRILLOUIN|   689           0.00050       -0.12500       -0.37500       -0.32143
 BRILLOUIN|   690           0.00050       -0.12500       -0.37500       -0.25000
 BRILLOUIN|   691           0.00050       -0.12500       -0.37500       -0.17857
 BRILLOUIN|   692           0.00050       -0.12500       -0.37500       -0.10714
 BRILLOUIN|   693           0.00050       -0.12500       -0.37500       -0.03571
 BRILLOUIN|   694           0.00050       -0.12500       -0.37500        0.03571
 BRILLOUIN|   695           0.00050       -0.12500       -0.37500        0.10714
 BRILLOUIN|   696           0.00050       -0.12500       -0.37500        0.17857
 BRILLOUIN|   697           0.00050       -0.12500       -0.37500        0.25000
 BRILLOUIN|   698           0.00050       -0.12500       -0.37500        0.32143
 BRILLOUIN|   699           0.00050       -0.12500       -0.37500        0.39286
 BRILLOUIN|   700           0.00050       -0.12500       -0.37500        0.46429
 BRILLOUIN|   701           0.00050       -0.12500       -0.29167       -0.46429
 BRILLOUIN|   702           0.00050       -0.12500       -0.29167       -0.39286
 BRILLOUIN|   703           0.00050       -0.12500       -0.29167       -0.32143
 BRILLOUIN|   704           0.00050       -0.12500       -0.29167       -0.25000
 BRILLOUIN|   705           0.00050       -0.12500       -0.29167       -0.17857
 BRILLOUIN|   706           0.00050       -0.12500       -0.29167       -0.10714
 BRILLOUIN|   707           0.00050       -0.12500       -0.29167       -0.03571
 BRILLOUIN|   708           0.00050       -0.12500       -0.29167        0.03571
 BRILLOUIN|   709           0.00050       -0.12500       -0.29167        0.10714
 BRILLOUIN|   710           0.00050       -0.12500       -0.29167        0.17857
 BRILLOUIN|   711           0.00050       -0.12500       -0.29167        0.25000
 BRILLOUIN|   712           0.00050       -0.12500       -0.29167        0.32143
 BRILLOUIN|   713           0.00050       -0.12500       -0.29167        0.39286
 BRILLOUIN|   714           0.00050       -0.12500       -0.29167        0.46429
 BRILLOUIN|   715           0.00050       -0.12500       -0.20833       -0.46429
 BRILLOUIN|   716           0.00050       -0.12500       -0.20833       -0.39286
 BRILLOUIN|   717           0.00050       -0.12500       -0.20833       -0.32143
 BRILLOUIN|   718           0.00050       -0.12500       -0.20833       -0.25000
 BRILLOUIN|   719           0.00050       -0.12500       -0.20833       -0.17857
 BRILLOUIN|   720           0.00050       -0.12500       -0.20833       -0.10714
 BRILLOUIN|   721           0.00050       -0.12500       -0.20833       -0.03571
 BRILLOUIN|   722           0.00050       -0.12500       -0.20833        0.03571
 BRILLOUIN|   723           0.00050       -0.12500       -0.20833        0.10714
 BRILLOUIN|   724           0.00050       -0.12500       -0.20833        0.17857
 BRILLOUIN|   725           0.00050       -0.12500       -0.20833        0.25000
 BRILLOUIN|   726           0.00050       -0.12500       -0.20833        0.32143
 BRILLOUIN|   727           0.00050       -0.12500       -0.20833        0.39286
 BRILLOUIN|   728           0.00050       -0.12500       -0.20833        0.46429
 BRILLOUIN|   729           0.00050       -0.12500       -0.12500       -0.46429
 BRILLOUIN|   730           0.00050       -0.12500       -0.12500       -0.39286
 BRILLOUIN|   731           0.00050       -0.12500       -0.12500       -0.32143
 BRILLOUIN|   732           0.00050       -0.12500       -0.12500       -0.25000
 BRILLOUIN|   733           0.00050       -0.12500       -0.12500       -0.17857
 BRILLOUIN|   734           0.00050       -0.12500       -0.12500       -0.10714
 BRILLOUIN|   735           0.00050       -0.12500       -0.12500       -0.03571
 BRILLOUIN|   736           0.00050       -0.12500       -0.12500        0.03571
 BRILLOUIN|   737           0.00050       -0.12500       -0.12500        0.10714
 BRILLOUIN|   738           0.00050       -0.12500       -0.12500        0.17857
 BRILLOUIN|   739           0.00050       -0.12500       -0.12500        0.25000
 BRILLOUIN|   740           0.00050       -0.12500       -0.12500        0.32143
 BRILLOUIN|   741           0.00050       -0.12500       -0.12500        0.39286
 BRILLOUIN|   742           0.00050       -0.12500       -0.12500        0.46429
 BRILLOUIN|   743           0.00050       -0.12500       -0.04167       -0.46429
 BRILLOUIN|   744           0.00050       -0.12500       -0.04167       -0.39286
 BRILLOUIN|   745           0.00050       -0.12500       -0.04167       -0.32143
 BRILLOUIN|   746           0.00050       -0.12500       -0.04167       -0.25000
 BRILLOUIN|   747           0.00050       -0.12500       -0.04167       -0.17857
 BRILLOUIN|   748           0.00050       -0.12500       -0.04167       -0.10714
 BRILLOUIN|   749           0.00050       -0.12500       -0.04167       -0.03571
 BRILLOUIN|   750           0.00050       -0.12500       -0.04167        0.03571
 BRILLOUIN|   751           0.00050       -0.12500       -0.04167        0.10714
 BRILLOUIN|   752           0.00050       -0.12500       -0.04167        0.17857
 BRILLOUIN|   753           0.00050       -0.12500       -0.04167        0.25000
 BRILLOUIN|   754           0.00050       -0.12500       -0.04167        0.32143
 BRILLOUIN|   755           0.00050       -0.12500       -0.04167        0.39286
 BRILLOUIN|   756           0.00050       -0.12500       -0.04167        0.46429
 BRILLOUIN|   757           0.00050       -0.12500        0.04167       -0.46429
 BRILLOUIN|   758           0.00050       -0.12500        0.04167       -0.39286
 BRILLOUIN|   759           0.00050       -0.12500        0.04167       -0.32143
 BRILLOUIN|   760           0.00050       -0.12500        0.04167       -0.25000
 BRILLOUIN|   761           0.00050       -0.12500        0.04167       -0.17857
 BRILLOUIN|   762           0.00050       -0.12500        0.04167       -0.10714
 BRILLOUIN|   763           0.00050       -0.12500        0.04167       -0.03571
 BRILLOUIN|   764           0.00050       -0.12500        0.04167        0.03571
 BRILLOUIN|   765           0.00050       -0.12500        0.04167        0.10714
 BRILLOUIN|   766           0.00050       -0.12500        0.04167        0.17857
 BRILLOUIN|   767           0.00050       -0.12500        0.04167        0.25000
 BRILLOUIN|   768           0.00050       -0.12500        0.04167        0.32143
 BRILLOUIN|   769           0.00050       -0.12500        0.04167        0.39286
 BRILLOUIN|   770           0.00050       -0.12500        0.04167        0.46429
 BRILLOUIN|   771           0.00050       -0.12500        0.12500       -0.46429
 BRILLOUIN|   772           0.00050       -0.12500        0.12500       -0.39286
 BRILLOUIN|   773           0.00050       -0.12500        0.12500       -0.32143
 BRILLOUIN|   774           0.00050       -0.12500        0.12500       -0.25000
 BRILLOUIN|   775           0.00050       -0.12500        0.12500       -0.17857
 BRILLOUIN|   776           0.00050       -0.12500        0.12500       -0.10714
 BRILLOUIN|   777           0.00050       -0.12500        0.12500       -0.03571
 BRILLOUIN|   778           0.00050       -0.12500        0.12500        0.03571
 BRILLOUIN|   779           0.00050       -0.12500        0.12500        0.10714
 BRILLOUIN|   780           0.00050       -0.12500        0.12500        0.17857
 BRILLOUIN|   781           0.00050       -0.12500        0.12500        0.25000
 BRILLOUIN|   782           0.00050       -0.12500        0.12500        0.32143
 BRILLOUIN|   783           0.00050       -0.12500        0.12500        0.39286
 BRILLOUIN|   784           0.00050       -0.12500        0.12500        0.46429
 BRILLOUIN|   785           0.00050       -0.12500        0.20833       -0.46429
 BRILLOUIN|   786           0.00050       -0.12500        0.20833       -0.39286
 BRILLOUIN|   787           0.00050       -0.12500        0.20833       -0.32143
 BRILLOUIN|   788           0.00050       -0.12500        0.20833       -0.25000
 BRILLOUIN|   789           0.00050       -0.12500        0.20833       -0.17857
 BRILLOUIN|   790           0.00050       -0.12500        0.20833       -0.10714
 BRILLOUIN|   791           0.00050       -0.12500        0.20833       -0.03571
 BRILLOUIN|   792           0.00050       -0.12500        0.20833        0.03571
 BRILLOUIN|   793           0.00050       -0.12500        0.20833        0.10714
 BRILLOUIN|   794           0.00050       -0.12500        0.20833        0.17857
 BRILLOUIN|   795           0.00050       -0.12500        0.20833        0.25000
 BRILLOUIN|   796           0.00050       -0.12500        0.20833        0.32143
 BRILLOUIN|   797           0.00050       -0.12500        0.20833        0.39286
 BRILLOUIN|   798           0.00050       -0.12500        0.20833        0.46429
 BRILLOUIN|   799           0.00050       -0.12500        0.29167       -0.46429
 BRILLOUIN|   800           0.00050       -0.12500        0.29167       -0.39286
 BRILLOUIN|   801           0.00050       -0.12500        0.29167       -0.32143
 BRILLOUIN|   802           0.00050       -0.12500        0.29167       -0.25000
 BRILLOUIN|   803           0.00050       -0.12500        0.29167       -0.17857
 BRILLOUIN|   804           0.00050       -0.12500        0.29167       -0.10714
 BRILLOUIN|   805           0.00050       -0.12500        0.29167       -0.03571
 BRILLOUIN|   806           0.00050       -0.12500        0.29167        0.03571
 BRILLOUIN|   807           0.00050       -0.12500        0.29167        0.10714
 BRILLOUIN|   808           0.00050       -0.12500        0.29167        0.17857
 BRILLOUIN|   809           0.00050       -0.12500        0.29167        0.25000
 BRILLOUIN|   810           0.00050       -0.12500        0.29167        0.32143
 BRILLOUIN|   811           0.00050       -0.12500        0.29167        0.39286
 BRILLOUIN|   812           0.00050       -0.12500        0.29167        0.46429
 BRILLOUIN|   813           0.00050       -0.12500        0.37500       -0.46429
 BRILLOUIN|   814           0.00050       -0.12500        0.37500       -0.39286
 BRILLOUIN|   815           0.00050       -0.12500        0.37500       -0.32143
 BRILLOUIN|   816           0.00050       -0.12500        0.37500       -0.25000
 BRILLOUIN|   817           0.00050       -0.12500        0.37500       -0.17857
 BRILLOUIN|   818           0.00050       -0.12500        0.37500       -0.10714
 BRILLOUIN|   819           0.00050       -0.12500        0.37500       -0.03571
 BRILLOUIN|   820           0.00050       -0.12500        0.37500        0.03571
 BRILLOUIN|   821           0.00050       -0.12500        0.37500        0.10714
 BRILLOUIN|   822           0.00050       -0.12500        0.37500        0.17857
 BRILLOUIN|   823           0.00050       -0.12500        0.37500        0.25000
 BRILLOUIN|   824           0.00050       -0.12500        0.37500        0.32143
 BRILLOUIN|   825           0.00050       -0.12500        0.37500        0.39286
 BRILLOUIN|   826           0.00050       -0.12500        0.37500        0.46429
 BRILLOUIN|   827           0.00050       -0.12500        0.45833       -0.46429
 BRILLOUIN|   828           0.00050       -0.12500        0.45833       -0.39286
 BRILLOUIN|   829           0.00050       -0.12500        0.45833       -0.32143
 BRILLOUIN|   830           0.00050       -0.12500        0.45833       -0.25000
 BRILLOUIN|   831           0.00050       -0.12500        0.45833       -0.17857
 BRILLOUIN|   832           0.00050       -0.12500        0.45833       -0.10714
 BRILLOUIN|   833           0.00050       -0.12500        0.45833       -0.03571
 BRILLOUIN|   834           0.00050       -0.12500        0.45833        0.03571
 BRILLOUIN|   835           0.00050       -0.12500        0.45833        0.10714
 BRILLOUIN|   836           0.00050       -0.12500        0.45833        0.17857
 BRILLOUIN|   837           0.00050       -0.12500        0.45833        0.25000
 BRILLOUIN|   838           0.00050       -0.12500        0.45833        0.32143
 BRILLOUIN|   839           0.00050       -0.12500        0.45833        0.39286
 BRILLOUIN|   840           0.00050       -0.12500        0.45833        0.46429
 BRILLOUIN|   841           0.00050       -0.04167       -0.45833       -0.46429
 BRILLOUIN|   842           0.00050       -0.04167       -0.45833       -0.39286
 BRILLOUIN|   843           0.00050       -0.04167       -0.45833       -0.32143
 BRILLOUIN|   844           0.00050       -0.04167       -0.45833       -0.25000
 BRILLOUIN|   845           0.00050       -0.04167       -0.45833       -0.17857
 BRILLOUIN|   846           0.00050       -0.04167       -0.45833       -0.10714
 BRILLOUIN|   847           0.00050       -0.04167       -0.45833       -0.03571
 BRILLOUIN|   848           0.00050       -0.04167       -0.45833        0.03571
 BRILLOUIN|   849           0.00050       -0.04167       -0.45833        0.10714
 BRILLOUIN|   850           0.00050       -0.04167       -0.45833        0.17857
 BRILLOUIN|   851           0.00050       -0.04167       -0.45833        0.25000
 BRILLOUIN|   852           0.00050       -0.04167       -0.45833        0.32143
 BRILLOUIN|   853           0.00050       -0.04167       -0.45833        0.39286
 BRILLOUIN|   854           0.00050       -0.04167       -0.45833        0.46429
 BRILLOUIN|   855           0.00050       -0.04167       -0.37500       -0.46429
[...]
                                          XC Energy ::           -5.796895897718
                                     Coulomb Energy ::           38.874317767098
                       Total Pseudopotential Energy ::         -101.966243914866
                       Local Pseudopotential Energy ::          -86.203231756115
                    Nonlocal Pseudopotential Energy ::          -15.763012158752
                                        Confinement ::            1.260697894175

 Orbital energies  State     L     Occupation   Energy[a.u.]          Energy[eV]

                       1     0          2.000      -0.225955           -6.148559

                       1     2         10.000      -0.334763           -9.109356


 Total Electron Density at R=0:                                         0.000021
 Re-scaling the density matrix to get the right number of electrons
                  # Electrons              Trace(P)               Scaling factor
                          192               192.000                        1.000


 SCF WAVEFUNCTION OPTIMIZATION

  Step     Update method      Time    Convergence         Total energy    Change
  ------------------------------------------------------------------------------

  Trace(PS):                                  192.0000000000
  Electronic density on regular grids:       -192.0000000012       -0.0000000012
  Core density on regular grids:              191.9999999752       -0.0000000248
  Total charge density on r-space grids:       -0.0000000260
  Total charge density g-space grids:          -0.0000000260

     1 NoMix/Diag. 0.40E+00   52.4     0.44341566      -658.7119648678 -6.59E+02

  Trace(PS):                                  192.0000000001
  Electronic density on regular grids:       -192.0000000013       -0.0000000013
  Core density on regular grids:              191.9999999752       -0.0000000248
  Total charge density on r-space grids:       -0.0000000261
  Total charge density g-space grids:          -0.0000000261

     2 Broy./Diag. 0.40E+00   44.2     0.03646857      -660.9146763356 -2.20E+00

  Trace(PS):                                  191.9999999999
  Electronic density on regular grids:       -192.0000000013       -0.0000000013
  Core density on regular grids:              191.9999999752       -0.0000000248
  Total charge density on r-space grids:       -0.0000000261
  Total charge density g-space grids:          -0.0000000261

     3 Broy./Diag. 0.40E+00   44.2     0.01972203      -658.6872077991  2.23E+00

  Trace(PS):                                  192.0000000000
  Electronic density on regular grids:       -192.0000000013       -0.0000000013
  Core density on regular grids:              191.9999999752       -0.0000000248
  Total charge density on r-space grids:       -0.0000000261
  Total charge density g-space grids:          -0.0000000261

     4 Broy./Diag. 0.40E+00   44.1     0.00115360      -657.9944792119  6.93E-01

  Trace(PS):                                  192.0000000000
  Electronic density on regular grids:       -192.0000000013       -0.0000000013
  Core density on regular grids:              191.9999999752       -0.0000000248
  Total charge density on r-space grids:       -0.0000000261
  Total charge density g-space grids:          -0.0000000261

     5 Broy./Diag. 0.40E+00   44.4     0.00020141      -657.9924366000  2.04E-03

  Trace(PS):                                  192.0000000001
  Electronic density on regular grids:       -192.0000000014       -0.0000000014
  Core density on regular grids:              191.9999999752       -0.0000000248
  Total charge density on r-space grids:       -0.0000000262
  Total charge density g-space grids:          -0.0000000262

     6 Broy./Diag. 0.40E+00   44.4     0.00003467      -658.0022723304 -9.84E-03

  Trace(PS):                                  192.0000000001
  Electronic density on regular grids:       -192.0000000015       -0.0000000015
  Core density on regular grids:              191.9999999752       -0.0000000248
  Total charge density on r-space grids:       -0.0000000262
  Total charge density g-space grids:          -0.0000000262

     7 Broy./Diag. 0.40E+00   44.1     0.00000945      -658.0023214373 -4.91E-05

  Trace(PS):                                  192.0000000001
  Electronic density on regular grids:       -192.0000000014       -0.0000000014
  Core density on regular grids:              191.9999999752       -0.0000000248
  Total charge density on r-space grids:       -0.0000000262
  Total charge density g-space grids:          -0.0000000262

     8 Broy./Diag. 0.40E+00   44.4     0.00000192      -658.0021425022  1.79E-04

  Trace(PS):                                  192.0000000000
  Electronic density on regular grids:       -192.0000000014       -0.0000000014
  Core density on regular grids:              191.9999999752       -0.0000000248
  Total charge density on r-space grids:       -0.0000000262
  Total charge density g-space grids:          -0.0000000262

     9 Broy./Diag. 0.40E+00   44.2     0.00000095      -658.0021243567  1.81E-05

  Trace(PS):                                  191.9999999999
  Electronic density on regular grids:       -192.0000000013       -0.0000000013
  Core density on regular grids:              191.9999999752       -0.0000000248
  Total charge density on r-space grids:       -0.0000000261
  Total charge density g-space grids:          -0.0000000261

    10 Broy./Diag. 0.40E+00   44.4     0.00000005      -658.0021241711  1.86E-07

  Trace(PS):                                  191.9999999999
  Electronic density on regular grids:       -192.0000000012       -0.0000000012
  Core density on regular grids:              191.9999999752       -0.0000000248
  Total charge density on r-space grids:       -0.0000000260
  Total charge density g-space grids:          -0.0000000260

    11 Broy./Diag. 0.40E+00   44.2     0.00000004      -658.0021261349 -1.96E-06

  Trace(PS):                                  192.0000000001
  Electronic density on regular grids:       -192.0000000013       -0.0000000013
  Core density on regular grids:              191.9999999752       -0.0000000248
  Total charge density on r-space grids:       -0.0000000261
  Total charge density g-space grids:          -0.0000000261

    12 Broy./Diag. 0.40E+00   44.2     0.00000001      -658.0021262737 -1.39E-07

  Trace(PS):                                  192.0000000001
  Electronic density on regular grids:       -192.0000000014       -0.0000000014
  Core density on regular grids:              191.9999999752       -0.0000000248
  Total charge density on r-space grids:       -0.0000000262
  Total charge density g-space grids:          -0.0000000262

    13 Broy./Diag. 0.40E+00   44.3     1.7661E-09      -658.0021259146  3.59E-07

  *** SCF run converged in    13 steps ***


  Electronic density on regular grids:       -192.0000000014       -0.0000000014
  Core density on regular grids:              191.9999999752       -0.0000000248
  Total charge density on r-space grids:       -0.0000000262
  Total charge density g-space grids:          -0.0000000262

  Overlap energy of the core charge distribution:               0.00000000000060
  Self energy of the core charge distribution:              -1140.25684253862346
  Core Hamiltonian energy:                                    349.76764356446074
  Hartree energy:                                             227.21345562074117
  Exchange-correlation energy:                                -94.72618473051898
  Electronic entropic energy:                                  -0.00019783065172
  Fermi energy:                                                 0.16174108868508

  Total energy:                                              -658.00212591459206

 !-----------------------------------------------------------------------------!
                     Mulliken Population Analysis

 #  Atom  Element  Kind  Atomic population                           Net charge
       1     Hg       1         11.999203                              0.000797
       2     Hg       1         11.999971                              0.000029
       3     Hg       1         12.000244                             -0.000244
       4     Hg       1         11.999971                              0.000029
       5     Hg       1         12.000244                             -0.000244
       6     Hg       1         11.999971                              0.000029
       7     Hg       1         12.001289                             -0.001289
       8     Hg       1         11.999971                              0.000029
       9     Hg       1         11.998769                              0.001231
      10     Hg       1         11.999970                              0.000030
      11     Hg       1         11.999813                              0.000187
      12     Hg       1         11.999970                              0.000030
      13     Hg       1         11.999813                              0.000187
      14     Hg       1         11.999971                              0.000029
      15     Hg       1         12.000859                             -0.000859
      16     Hg       1         11.999971                              0.000029
 # Total charge                            192.000000                  0.000000

 !-----------------------------------------------------------------------------!

 !-----------------------------------------------------------------------------!
                           Hirshfeld Charges

  #Atom  Element  Kind  Ref Charge     Population                    Net charge
      1       Hg     1      12.000         12.000                        -0.000
      2       Hg     1      12.000         12.000                         0.000
      3       Hg     1      12.000         12.000                         0.000
      4       Hg     1      12.000         12.000                         0.000
      5       Hg     1      12.000         12.000                         0.000
      6       Hg     1      12.000         12.000                         0.000
      7       Hg     1      12.000         12.000                         0.000
      8       Hg     1      12.000         12.000                         0.000
      9       Hg     1      12.000         12.000                        -0.000
     10       Hg     1      12.000         12.000                         0.000
     11       Hg     1      12.000         12.000                        -0.000
     12       Hg     1      12.000         12.000                         0.000
     13       Hg     1      12.000         12.000                        -0.000
     14       Hg     1      12.000         12.000                         0.000
     15       Hg     1      12.000         12.000                         0.000
     16       Hg     1      12.000         12.000                         0.000

  Total Charge                                                           -0.000
 !-----------------------------------------------------------------------------!

 ENERGY| Total FORCE_EVAL ( QS ) energy (a.u.):             -658.002125914592057


 -------------------------------------------------------------------------------
 -                                                                             -
 -                                DBCSR STATISTICS                             -
 -                                                                             -
 -------------------------------------------------------------------------------
 COUNTER                                    TOTAL       BLAS       SMM       ACC
 flops total                         0.000000E+00       0.0%      0.0%      0.0%
 flops max/rank                      0.000000E+00       0.0%      0.0%      0.0%
 matmuls inhomo. stacks                         0       0.0%      0.0%      0.0%
 matmuls total                                  0       0.0%      0.0%      0.0%
 number of processed stacks                     0       0.0%      0.0%      0.0%
 average stack size                                     0.0       0.0       0.0
 marketing flops                     0.000000E+00
 -------------------------------------------------------------------------------

 MEMORY| Estimated peak process memory [MiB]                                 259

 -------------------------------------------------------------------------------
 ----                             MULTIGRID INFO                            ----
 -------------------------------------------------------------------------------
 count for grid        1:         451936          cutoff [a.u.]          500.00
 count for grid        2:         980768          cutoff [a.u.]          166.67
 count for grid        3:         474656          cutoff [a.u.]           55.56
 count for grid        4:         193136          cutoff [a.u.]           18.52
 total gridlevel count  :        2100496

 -------------------------------------------------------------------------------
 -                                                                             -
 -                         MESSAGE PASSING PERFORMANCE                         -
 -                                                                             -
 -------------------------------------------------------------------------------

 ROUTINE             CALLS  TOT TIME [s]  AVE VOLUME [Bytes]  PERFORMANCE [MB/s]
 MP_Group           104924         0.000
 MP_Bcast           944725         8.795                200.               21.48
 MP_Allreduce        10061         2.445               2277.                9.37
 MP_Sync               167         0.017
 MP_Alltoall       2150533       323.430             233512.             1552.65
 MP_ISendRecv        23247         0.027               1424.             1230.41
 MP_Wait            653937         1.375
 MP_comm_split           1         0.000
 MP_ISend           632653         1.903               1510.              501.91
 MP_IRecv          1102841         0.276                861.             3440.21
 MP_Recv              1955         0.018              54400.             5918.89
 -------------------------------------------------------------------------------


 -------------------------------------------------------------------------------
 -                                                                             -
 -                           R E F E R E N C E S                               -
 -                                                                             -
 -------------------------------------------------------------------------------
 
 CP2K version 5.0 (Development Version), the CP2K developers group (2016).
 CP2K is freely available from https://www.cp2k.org/ .

 Schuett, Ole; Messmer, Peter; Hutter, Juerg; VandeVondele, Joost. 
 Electronic Structure Calculations on Graphics Processing Units, John Wiley & Sons, Ltd, 173-190 (2016). 
 GPU-Accelerated Sparse Matrix-Matrix Multiplication for Linear Scaling Density Functional Theory.
 http://dx.doi.org/10.1002/9781118670712.ch8


 Borstnik, U; VandeVondele, J; Weber, V; Hutter, J. 
 PARALLEL COMPUTING, 40 (5-6), 47-58 (2014). 
 Sparse matrix multiplication: The distributed block-compressed sparse
 row library.
 http://dx.doi.org/10.1016/j.parco.2014.03.012


 Hutter, J; Iannuzzi, M; Schiffmann, F; VandeVondele, J. 
 WILEY INTERDISCIPLINARY REVIEWS-COMPUTATIONAL MOLECULAR SCIENCE, 4 (1), 15-25 (2014). 
 CP2K: atomistic simulations of condensed matter systems.
 http://dx.doi.org/10.1002/wcms.1159


 VandeVondele, J; Hutter, J. 
 JOURNAL OF CHEMICAL PHYSICS, 127 (11), 114105 (2007). 
 Gaussian basis sets for accurate calculations on molecular systems in
 gas and condensed phases.
 http://dx.doi.org/10.1063/1.2770708


 Krack, M. 
 THEORETICAL CHEMISTRY ACCOUNTS, 114 (1-3), 145-152 (2005). 
 Pseudopotentials for H to Kr optimized for gradient-corrected
 exchange-correlation functionals.
 http://dx.doi.org/10.1007/s00214-005-0655-y


 VandeVondele, J; Krack, M; Mohamed, F; Parrinello, M; Chassaing, T;
 Hutter, J. COMPUTER PHYSICS COMMUNICATIONS, 167 (2), 103-128 (2005). 
 QUICKSTEP: Fast and accurate density functional calculations using a
 mixed Gaussian and plane waves approach.
 http://dx.doi.org/10.1016/j.cpc.2004.12.014


 Frigo, M; Johnson, SG. 
 PROCEEDINGS OF THE IEEE, 93 (2), 216-231 (2005). 
 The design and implementation of FFTW3.
 http://dx.doi.org/10.1109/JPROC.2004.840301


 Hartwigsen, C; Goedecker, S; Hutter, J. 
 PHYSICAL REVIEW B, 58 (7), 3641-3662 (1998). 
 Relativistic separable dual-space Gaussian pseudopotentials from H to Rn.
 http://dx.doi.org/10.1103/PhysRevB.58.3641


 Lippert, G; Hutter, J; Parrinello, M. 
 MOLECULAR PHYSICS, 92 (3), 477-487 (1997). 
 A hybrid Gaussian and plane wave density functional scheme.
 http://dx.doi.org/10.1080/002689797170220


 Perdew, JP; Burke, K; Ernzerhof, M. 
 PHYSICAL REVIEW LETTERS, 77 (18), 3865-3868 (1996). 
 Generalized gradient approximation made simple.
 http://dx.doi.org/10.1103/PhysRevLett.77.3865


 Goedecker, S; Teter, M; Hutter, J. 
 PHYSICAL REVIEW B, 54 (3), 1703-1710 (1996). 
 Separable dual-space Gaussian pseudopotentials.
 http://dx.doi.org/10.1103/PhysRevB.54.1703


 -------------------------------------------------------------------------------
 -                                                                             -
 -                                T I M I N G                                  -
 -                                                                             -
 -------------------------------------------------------------------------------
 SUBROUTINE                       CALLS  ASD         SELF TIME        TOTAL TIME
                                MAXIMUM       AVERAGE  MAXIMUM  AVERAGE  MAXIMUM
 CP2K                                 1  1.0    0.786    0.841  585.317  585.318
 qs_energies                          1  2.0    0.000    0.000  584.385  584.385
 scf_env_do_scf                       1  3.0    0.000    0.000  583.983  583.987
 scf_env_do_scf_inner_loop           13  4.0    0.001    0.003  583.983  583.987
 qs_scf_new_mos_kp                   13  5.0    0.000    0.000  582.690  582.692
 do_general_diag_kp                  13  6.0    0.310    0.356  582.690  582.692
 dbcsr_desymmetrize_deep         209751  7.5    3.247    4.014  214.772  217.802
 mp_alltoall_d11v               1101283  9.4  182.344  184.827  182.344  184.827
 cp_fm_start_copy_general        157248  7.3    1.713    2.354  178.385  178.850
 copy_dbcsr_to_fm                104918  7.0    0.891    0.965  175.640  176.082
 kpoint_density_transform            13  7.0    0.071    0.083  167.538  167.567
 mp_allgather_i                  314496  8.3  166.100  167.523  166.100  167.523
 dbcsr_complete_redistribute     157334  8.3    5.409    6.286  156.620  157.984
 hybrid_alltoall_any             209751  8.5    1.081    1.258  126.785  129.200
 mp_alltoall_i11v                681753  9.1   96.361   96.534   96.361   96.534
 mp_alltoall_i22                 367085  8.9   54.305   61.148   54.305   61.148
 copy_fm_to_dbcsr                 52416  8.0    0.109    0.121   42.588   43.760
 cp_cfm_geeig                        91  7.0    0.003    0.004   13.048   13.439
 -------------------------------------------------------------------------------

 The number of warnings for this run is : 0
 
 -------------------------------------------------------------------------------
  **** **** ******  **  PROGRAM ENDED AT                 2017-04-16 23:37:07.890
 ***** ** ***  *** **   PROGRAM RAN ON                                  nid00968
 **    ****   ******    PROGRAM RAN BY                                    timuel
 ***** **    ** ** **   PROGRAM PROCESS ID                                 11891
  **** **  *******  **  PROGRAM STOPPED IN /scratch/snx3000/timuel/fdaemon-data/
                                           43ef1d77-2f17-422f-a58f-656048821ba4
